Job Start Time: Wed May  4 21:41:10 MDT 2022
SLURM Job ID: 10460574
SLURM Job Name: ar06_Cl_NBO
 Entering Gaussian System, Link 0=/projects/rpaton@colostate.edu/g16/g16
 Initial command:
 /projects/rpaton@colostate.edu/g16/l1.exe "/gpfs/summit/scratch/lilianac@colostate.edu/10460574/Gau-166375.inp" -scrdir="/gpfs/summit/scratch/lilianac@colostate.edu/10460574/"
 Entering Link 1 = /projects/rpaton@colostate.edu/g16/l1.exe PID=    166376.
  
 Copyright (c) 1988-2019, Gaussian, Inc.  All Rights Reserved.
  
 This is part of the Gaussian(R) 16 program.  It is based on
 the Gaussian(R) 09 system (copyright 2009, Gaussian, Inc.),
 the Gaussian(R) 03 system (copyright 2003, Gaussian, Inc.),
 the Gaussian(R) 98 system (copyright 1998, Gaussian, Inc.),
 the Gaussian(R) 94 system (copyright 1995, Gaussian, Inc.),
 the Gaussian 92(TM) system (copyright 1992, Gaussian, Inc.),
 the Gaussian 90(TM) system (copyright 1990, Gaussian, Inc.),
 the Gaussian 88(TM) system (copyright 1988, Gaussian, Inc.),
 the Gaussian 86(TM) system (copyright 1986, Carnegie Mellon
 University), and the Gaussian 82(TM) system (copyright 1983,
 Carnegie Mellon University). Gaussian is a federally registered
 trademark of Gaussian, Inc.
  
 This software contains proprietary and confidential information,
 including trade secrets, belonging to Gaussian, Inc.
  
 This software is provided under written license and may be
 used, copied, transmitted, or stored only in accord with that
 written license.
  
 The following legend is applicable only to US Government
 contracts under FAR:
  
                    RESTRICTED RIGHTS LEGEND
  
 Use, reproduction and disclosure by the US Government is
 subject to restrictions as set forth in subparagraphs (a)
 and (c) of the Commercial Computer Software - Restricted
 Rights clause in FAR 52.227-19.
  
 Gaussian, Inc.
 340 Quinnipiac St., Bldg. 40, Wallingford CT 06492
  
  
 ---------------------------------------------------------------
 Warning -- This program may not be used in any manner that
 competes with the business of Gaussian, Inc. or will provide
 assistance to any competitor of Gaussian, Inc.  The licensee
 of this program is prohibited from giving any competitor of
 Gaussian, Inc. access to this program.  By using this program,
 the user acknowledges that Gaussian, Inc. is engaged in the
 business of creating and licensing software in the field of
 computational chemistry and represents and warrants to the
 licensee that it is not a competitor of Gaussian, Inc. and that
 it will not use this program in any manner prohibited above.
 ---------------------------------------------------------------
  

 Cite this work as:
 Gaussian 16, Revision C.01,
 M. J. Frisch, G. W. Trucks, H. B. Schlegel, G. E. Scuseria, 
 M. A. Robb, J. R. Cheeseman, G. Scalmani, V. Barone, 
 G. A. Petersson, H. Nakatsuji, X. Li, M. Caricato, A. V. Marenich, 
 J. Bloino, B. G. Janesko, R. Gomperts, B. Mennucci, H. P. Hratchian, 
 J. V. Ortiz, A. F. Izmaylov, J. L. Sonnenberg, D. Williams-Young, 
 F. Ding, F. Lipparini, F. Egidi, J. Goings, B. Peng, A. Petrone, 
 T. Henderson, D. Ranasinghe, V. G. Zakrzewski, J. Gao, N. Rega, 
 G. Zheng, W. Liang, M. Hada, M. Ehara, K. Toyota, R. Fukuda, 
 J. Hasegawa, M. Ishida, T. Nakajima, Y. Honda, O. Kitao, H. Nakai, 
 T. Vreven, K. Throssell, J. A. Montgomery, Jr., J. E. Peralta, 
 F. Ogliaro, M. J. Bearpark, J. J. Heyd, E. N. Brothers, K. N. Kudin, 
 V. N. Staroverov, T. A. Keith, R. Kobayashi, J. Normand, 
 K. Raghavachari, A. P. Rendell, J. C. Burant, S. S. Iyengar, 
 J. Tomasi, M. Cossi, J. M. Millam, M. Klene, C. Adamo, R. Cammi, 
 J. W. Ochterski, R. L. Martin, K. Morokuma, O. Farkas, 
 J. B. Foresman, and D. J. Fox, Gaussian, Inc., Wallingford CT, 2019.
 
 ******************************************
 Gaussian 16:  ES64L-G16RevC.01  3-Jul-2019
                 4-May-2022 
 ******************************************
 %chk=ar06_Cl_NBO.chk
 %mem=8GB
 %nprocshared=4
 Will use up to    4 processors via shared memory.
 ---------------------------------------------------------------------
 # wb97xd/6-311g(d) pop=(nbo6read,savenbos) scrf=(solvent=toluene,smd)
 ---------------------------------------------------------------------
 1/38=1,163=2,172=1/1;
 2/12=2,17=6,18=5,40=1/2;
 3/5=4,6=6,7=1,11=2,25=1,30=1,70=32201,72=13,74=-58/1,2,3;
 4//1;
 5/5=2,38=5,53=13/2;
 6/7=2,8=2,9=2,10=2,28=1,40=2,73=1,113=1,114=1,124=2103,126=1/1,12;
 99/5=1,9=1/99;
 -----------
 ar06_Cl_NBO
 -----------
 Symbolic Z-matrix:
 Charge =  0 Multiplicity = 1
 C                     0.89937   1.14278   0.1582 
 C                     2.2797    1.19067   0.16796 
 C                     2.97221   0.00002   0. 
 C                     2.27965  -1.1906   -0.16793 
 C                     0.89932  -1.14265  -0.15813 
 N                     0.21727   0.00008   0.00005 
 H                     0.312     2.04609   0.27964 
 H                     2.79392   2.13294   0.30239 
 H                     2.79383  -2.13289  -0.30237 
 H                     0.31191  -2.04594  -0.27956 
 Cl                    4.70441  -0.00001  -0.00003 
 Zn                   -1.81415  0.         0.00001 
 Cl                   -2.62553   2.0447   -0.10074 
 Cl                   -2.62532  -2.0448    0.1007 
 
                          Input orientation:                          
 ---------------------------------------------------------------------
 Center     Atomic      Atomic             Coordinates (Angstroms)
 Number     Number       Type             X           Y           Z
 ---------------------------------------------------------------------
      1          6           0        0.899369    1.142782    0.158198
      2          6           0        2.279699    1.190672    0.167956
      3          6           0        2.972209    0.000022    0.000002
      4          6           0        2.279648   -1.190602   -0.167926
      5          6           0        0.899322   -1.142654   -0.158133
      6          7           0        0.217268    0.000077    0.000045
      7          1           0        0.311998    2.046088    0.279644
      8          1           0        2.793923    2.132938    0.302386
      9          1           0        2.793830   -2.132890   -0.302372
     10          1           0        0.311911   -2.045937   -0.279559
     11         17           0        4.704405   -0.000012   -0.000034
     12         30           0       -1.814150   -0.000001    0.000009
     13         17           0       -2.625527    2.044697   -0.100743
     14         17           0       -2.625321   -2.044802    0.100702
 ---------------------------------------------------------------------
                    Distance matrix (angstroms):
                    1          2          3          4          5
     1  C    0.000000
     2  C    1.381195   0.000000
     3  C    2.372255   1.387597   0.000000
     4  C    2.730606   2.404846   1.387597   0.000000
     5  C    2.307224   2.730602   2.372251   1.381193   0.000000
     6  N    1.340167   2.387327   2.754941   2.387329   1.340169
     7  H    1.084304   2.148501   3.367686   3.814201   3.271800
     8  H    2.142553   1.081833   2.161609   3.395820   3.811967
     9  H    3.811972   3.395821   2.161611   1.081834   2.142553
    10  H    3.271799   3.814197   3.367683   2.148499   1.084304
    11  Cl   3.976093   2.706501   1.732196   2.706499   3.976089
    12  Zn   2.948586   4.266791   4.786359   4.266722   2.948490
    13  Cl   3.647656   4.986261   5.960327   5.876429   4.752585
    14  Cl   4.752624   5.876397   5.960184   4.986034   3.647461
                    6          7          8          9         10
     6  N    0.000000
     7  H    2.067199   0.000000
     8  H    3.358520   2.483548   0.000000
     9  H    3.358523   4.895109   4.308482   0.000000
    10  H    2.067198   4.130058   4.895104   2.483546   0.000000
    11  Cl   4.487137   4.853657   2.879388   2.879388   4.853653
    12  Zn   2.031418   2.963981   5.086767   5.086662   2.963806
    13  Cl   3.503158   2.962052   5.435139   6.845606   5.039226
    14  Cl   3.503138   5.039369   6.845611   5.434834   2.961745
                   11         12         13         14
    11  Cl   0.000000
    12  Zn   6.518555   0.000000
    13  Cl   7.610445   2.202107   0.000000
    14  Cl   7.610269   2.202124   4.094457   0.000000
 Stoichiometry    C5H4Cl3NZn
 Framework group  C1[X(C5H4Cl3NZn)]
 Deg. of freedom    36
 Full point group                 C1      NOp   1
 Largest Abelian subgroup         C1      NOp   1
 Largest concise Abelian subgroup C1      NOp   1
                         Standard orientation:                         
 ---------------------------------------------------------------------
 Center     Atomic      Atomic             Coordinates (Angstroms)
 Number     Number       Type             X           Y           Z
 ---------------------------------------------------------------------
      1          6           0       -0.899369   -1.142782    0.158198
      2          6           0       -2.279699   -1.190672    0.167956
      3          6           0       -2.972209   -0.000022    0.000002
      4          6           0       -2.279648    1.190602   -0.167926
      5          6           0       -0.899322    1.142654   -0.158133
      6          7           0       -0.217268   -0.000077    0.000045
      7          1           0       -0.311998   -2.046088    0.279644
      8          1           0       -2.793923   -2.132938    0.302386
      9          1           0       -2.793830    2.132890   -0.302372
     10          1           0       -0.311911    2.045937   -0.279559
     11         17           0       -4.704405    0.000012   -0.000034
     12         30           0        1.814150    0.000001    0.000009
     13         17           0        2.625527   -2.044697   -0.100743
     14         17           0        2.625321    2.044802    0.100702
 ---------------------------------------------------------------------
 Rotational constants (GHZ):           1.3380149           0.2913433           0.2397725
 Standard basis: 6-311G(d) (5D, 7F)
 There are   259 symmetry adapted cartesian basis functions of A   symmetry.
 There are   244 symmetry adapted basis functions of A   symmetry.
   244 basis functions,   440 primitive gaussians,   259 cartesian basis functions
    61 alpha electrons       61 beta electrons
       nuclear repulsion energy      1046.4201846028 Hartrees.
 NAtoms=   14 NActive=   14 NUniq=   14 SFac= 1.00D+00 NAtFMM=   60 NAOKFM=F Big=F
 Integral buffers will be    131072 words long.
 Raffenetti 2 integral format.
 Two-electron integral symmetry is turned on.
 Nuclear repulsion after empirical dispersion term =     1046.4120108753 Hartrees.
 ------------------------------------------------------------------------------
 Polarizable Continuum Model (PCM)
 =================================
 Model                : PCM.
 Atomic radii         : SMD-Coulomb.
 Polarization charges : Total charges.
 Charge compensation  : None.
 Solution method      : On-the-fly selection.
 Cavity type          : VdW (van der Waals Surface) (Alpha=1.000).
 Cavity algorithm     : GePol (No added spheres)
                        Default sphere list used, NSphG=   14.
                        Lebedev-Laikov grids with approx.  5.0 points / Ang**2.
                        Smoothing algorithm: York/Karplus (Gamma=1.0000).
                        Polarization charges: spherical gaussians, with
                                              point-specific exponents (IZeta= 3).
                        Self-potential: point-specific (ISelfS= 7).
                        Self-field    : sphere-specific E.n sum rule (ISelfD= 2).
 Solvent              : Toluene, Eps=   2.374100 Eps(inf)=   2.238315
 ------------------------------------------------------------------------------
 Spheres list:
 ISph  on   Nord     Re0    Alpha      Xe            Ye            Ze
    1   C      1    1.8500  1.000     -0.899369     -1.142782      0.158198
    2   C      2    1.8500  1.000     -2.279699     -1.190672      0.167956
    3   C      3    1.8500  1.000     -2.972209     -0.000022      0.000002
    4   C      4    1.8500  1.000     -2.279648      1.190602     -0.167926
    5   C      5    1.8500  1.000     -0.899322      1.142654     -0.158133
    6   N      6    1.8900  1.000     -0.217268     -0.000077      0.000045
    7   H      7    1.2000  1.000     -0.311998     -2.046088      0.279644
    8   H      8    1.2000  1.000     -2.793923     -2.132938      0.302386
    9   H      9    1.2000  1.000     -2.793830      2.132890     -0.302372
   10   H     10    1.2000  1.000     -0.311911      2.045937     -0.279559
   11  Cl     11    2.3800  1.000     -4.704405      0.000012     -0.000034
   12  Zn     12    1.3900  1.000      1.814150      0.000001      0.000009
   13  Cl     13    2.3800  1.000      2.625527     -2.044697     -0.100743
   14  Cl     14    2.3800  1.000      2.625321      2.044802      0.100702
 ------------------------------------------------------------------------------
 ------------------------------------------------------------------------------
 Atomic radii for non-electrostatic terms: SMD-CDS.
 ------------------------------------------------------------------------------
 Nuclear repulsion after PCM non-electrostatic terms =     1046.4037064982 Hartrees.
 One-electron integrals computed using PRISM.
 NBasis=   244 RedAO= T EigKep=  4.80D-04  NBF=   244
 NBsUse=   244 1.00D-06 EigRej= -1.00D+00 NBFU=   244
 ExpMin= 5.11D-02 ExpMax= 3.16D+05 ExpMxC= 1.12D+04 IAcc=3 IRadAn=         5 AccDes= 0.00D+00
 Harris functional with IExCor= 4639 and IRadAn=       5 diagonalized for initial guess.
 HarFok:  IExCor= 4639 AccDes= 0.00D+00 IRadAn=         5 IDoV= 1 UseB2=F ITyADJ=14
 ICtDFT=  3500011 ScaDFX=  1.000000  1.000000  1.000000  1.000000
 FoFCou: FMM=F IPFlag=           0 FMFlag=      100000 FMFlg1=           0
         NFxFlg=           0 DoJE=T BraDBF=F KetDBF=T FulRan=T
         wScrn=  0.000000 ICntrl=       500 IOpCl=  0 I1Cent=   200000004 NGrid=           0
         NMat0=    1 NMatS0=      1 NMatT0=    0 NMatD0=    1 NMtDS0=    0 NMtDT0=    0
 Petite list used in FoFCou.
 Keep R1 ints in memory in canonical form, NReq=909584462.
 Requested convergence on RMS density matrix=1.00D-08 within 128 cycles.
 Requested convergence on MAX density matrix=1.00D-06.
 Requested convergence on             energy=1.00D-06.
 No special actions if energy rises.
 Inv3:  Mode=1 IEnd=     9795747.
 Iteration    1 A*A^-1 deviation from unit magnitude is 4.77D-15 for   1790.
 Iteration    1 A*A^-1 deviation from orthogonality  is 2.91D-15 for   1807   1507.
 Iteration    1 A^-1*A deviation from unit magnitude is 4.77D-15 for   1790.
 Iteration    1 A^-1*A deviation from orthogonality  is 2.66D-15 for   1807   1507.
 EnCoef did   100 forward-backward iterations
 Error on total polarization charges =  0.02688
 SCF Done:  E(RwB97XD) =  -3407.74554822     A.U. after   16 cycles
            NFock= 16  Conv=0.78D-08     -V/T= 2.0014
 SMD-CDS (non-electrostatic) energy       (kcal/mol) =      -5.21
 (included in total energy above)

 **********************************************************************

            Population analysis using the SCF Density.

 **********************************************************************

 Orbital symmetries:
       Occupied  (A) (A) (A) (A) (A) (A) (A) (A) (A) (A) (A) (A)
                 (A) (A) (A) (A) (A) (A) (A) (A) (A) (A) (A) (A)
                 (A) (A) (A) (A) (A) (A) (A) (A) (A) (A) (A) (A)
                 (A) (A) (A) (A) (A) (A) (A) (A) (A) (A) (A) (A)
                 (A) (A) (A) (A) (A) (A) (A) (A) (A) (A) (A) (A)
                 (A)
       Virtual   (A) (A) (A) (A) (A) (A) (A) (A) (A) (A) (A) (A)
                 (A) (A) (A) (A) (A) (A) (A) (A) (A) (A) (A) (A)
                 (A) (A) (A) (A) (A) (A) (A) (A) (A) (A) (A) (A)
                 (A) (A) (A) (A) (A) (A) (A) (A) (A) (A) (A) (A)
                 (A) (A) (A) (A) (A) (A) (A) (A) (A) (A) (A) (A)
                 (A) (A) (A) (A) (A) (A) (A) (A) (A) (A) (A) (A)
                 (A) (A) (A) (A) (A) (A) (A) (A) (A) (A) (A) (A)
                 (A) (A) (A) (A) (A) (A) (A) (A) (A) (A) (A) (A)
                 (A) (A) (A) (A) (A) (A) (A) (A) (A) (A) (A) (A)
                 (A) (A) (A) (A) (A) (A) (A) (A) (A) (A) (A) (A)
                 (A) (A) (A) (A) (A) (A) (A) (A) (A) (A) (A) (A)
                 (A) (A) (A) (A) (A) (A) (A) (A) (A) (A) (A) (A)
                 (A) (A) (A) (A) (A) (A) (A) (A) (A) (A) (A) (A)
                 (A) (A) (A) (A) (A) (A) (A) (A) (A) (A) (A) (A)
                 (A) (A) (A) (A) (A) (A) (A) (A) (A) (A) (A) (A)
                 (A) (A) (A)
 The electronic state is 1-A.
 Alpha  occ. eigenvalues -- -347.50314-101.76058-101.67114-101.67114 -42.35057
 Alpha  occ. eigenvalues --  -37.33392 -37.33068 -37.33026 -14.51025 -10.40820
 Alpha  occ. eigenvalues --  -10.37551 -10.37550 -10.34107 -10.34106  -9.62919
 Alpha  occ. eigenvalues --   -9.53942  -9.53939  -7.37847  -7.36873  -7.36806
 Alpha  occ. eigenvalues --   -7.28509  -7.28509  -7.28071  -7.28071  -7.28065
 Alpha  occ. eigenvalues --   -7.28065  -4.95689  -3.34703  -3.34374  -3.34164
 Alpha  occ. eigenvalues --   -1.11689  -1.02598  -0.92498  -0.92086  -0.87380
 Alpha  occ. eigenvalues --   -0.86624  -0.78889  -0.75931  -0.67348  -0.64231
 Alpha  occ. eigenvalues --   -0.62157  -0.61738  -0.61659  -0.61585  -0.61297
 Alpha  occ. eigenvalues --   -0.60131  -0.56758  -0.55636  -0.55307  -0.50577
 Alpha  occ. eigenvalues --   -0.48737  -0.47474  -0.43353  -0.41686  -0.40033
 Alpha  occ. eigenvalues --   -0.39195  -0.39164  -0.37980  -0.37473  -0.37229
 Alpha  occ. eigenvalues --   -0.36980
 Alpha virt. eigenvalues --   -0.01700   0.00984   0.04159   0.07455   0.14087
 Alpha virt. eigenvalues --    0.14384   0.16871   0.17481   0.18901   0.19956
 Alpha virt. eigenvalues --    0.23942   0.27187   0.30452   0.31063   0.32770
 Alpha virt. eigenvalues --    0.33201   0.34305   0.35478   0.36006   0.38039
 Alpha virt. eigenvalues --    0.38427   0.38633   0.40679   0.41346   0.42677
 Alpha virt. eigenvalues --    0.43566   0.44197   0.47628   0.48128   0.48346
 Alpha virt. eigenvalues --    0.48388   0.52607   0.54133   0.56749   0.58384
 Alpha virt. eigenvalues --    0.60707   0.60921   0.65133   0.67447   0.68978
 Alpha virt. eigenvalues --    0.70287   0.70378   0.73715   0.74735   0.76013
 Alpha virt. eigenvalues --    0.81021   0.82158   0.84221   0.85337   0.86348
 Alpha virt. eigenvalues --    0.89168   0.89762   0.91535   0.91758   0.94528
 Alpha virt. eigenvalues --    0.95693   0.97099   0.97274   0.97351   0.98048
 Alpha virt. eigenvalues --    0.98807   0.99630   0.99676   1.01810   1.02180
 Alpha virt. eigenvalues --    1.06103   1.07705   1.10598   1.11436   1.12901
 Alpha virt. eigenvalues --    1.13033   1.21466   1.23056   1.30966   1.31404
 Alpha virt. eigenvalues --    1.33236   1.36612   1.40797   1.45679   1.49275
 Alpha virt. eigenvalues --    1.51847   1.53372   1.56470   1.58073   1.63807
 Alpha virt. eigenvalues --    1.65907   1.68464   1.69587   1.70701   1.77743
 Alpha virt. eigenvalues --    1.81706   1.82153   1.88150   1.88506   1.89982
 Alpha virt. eigenvalues --    1.96655   2.02819   2.04372   2.07407   2.09273
 Alpha virt. eigenvalues --    2.20570   2.22409   2.24744   2.25144   2.25770
 Alpha virt. eigenvalues --    2.26072   2.28577   2.31723   2.31861   2.35157
 Alpha virt. eigenvalues --    2.38286   2.40557   2.42089   2.42685   2.45811
 Alpha virt. eigenvalues --    2.54365   2.57625   2.63482   2.68027   2.77376
 Alpha virt. eigenvalues --    2.78316   2.80185   2.81698   2.90113   2.97518
 Alpha virt. eigenvalues --    3.02291   3.18828   3.21448   3.31117   3.33812
 Alpha virt. eigenvalues --    3.42920   3.45848   3.51879   3.66237   3.69551
 Alpha virt. eigenvalues --    3.83072   3.86534   3.96893   4.33200   4.33716
 Alpha virt. eigenvalues --    4.37280   4.37469   4.38074   4.38835   4.41177
 Alpha virt. eigenvalues --    4.41645   4.48743   5.21688   7.71342   7.73053
 Alpha virt. eigenvalues --    7.80056   7.85728   7.86874   9.50474   9.66132
 Alpha virt. eigenvalues --    9.68950   9.92292  10.13021  10.30530  23.41731
 Alpha virt. eigenvalues --   23.83170  23.97998  24.14108  24.18403  25.49520
 Alpha virt. eigenvalues --   25.51350  25.56258  25.59855  25.67450  25.79645
 Alpha virt. eigenvalues --   25.86364  25.87331  26.35792  34.18051  35.65840
 Alpha virt. eigenvalues --   44.25392  44.39732  44.53637 187.72262 215.54678
 Alpha virt. eigenvalues --  215.70014 215.73096 979.28687
          Condensed to atoms (all electrons):
               1          2          3          4          5          6
     1  C    4.945864   0.435000  -0.016687  -0.019735  -0.111829   0.351253
     2  C    0.435000   5.271901   0.348812  -0.061102  -0.019744   0.017877
     3  C   -0.016687   0.348812   5.184813   0.348808  -0.016680  -0.072125
     4  C   -0.019735  -0.061102   0.348808   5.271947   0.434946   0.017872
     5  C   -0.111829  -0.019744  -0.016680   0.434946   4.945943   0.351243
     6  N    0.351253   0.017877  -0.072125   0.017872   0.351243   7.043039
     7  H    0.384825  -0.033649   0.003996   0.000158   0.002814  -0.026990
     8  H   -0.034788   0.410309  -0.050147   0.004683  -0.000896   0.005758
     9  H   -0.000896   0.004683  -0.050147   0.410311  -0.034790   0.005758
    10  H    0.002813   0.000159   0.003996  -0.033648   0.384824  -0.026993
    11  Cl   0.007454  -0.125303   0.367161  -0.125304   0.007455  -0.000691
    12  Zn  -0.007256  -0.000801   0.000717  -0.000802  -0.007256   0.037946
    13  Cl  -0.002639   0.002651  -0.000085  -0.000140   0.001481  -0.020120
    14  Cl   0.001481  -0.000140  -0.000085   0.002653  -0.002639  -0.020122
               7          8          9         10         11         12
     1  C    0.384825  -0.034788  -0.000896   0.002813   0.007454  -0.007256
     2  C   -0.033649   0.410309   0.004683   0.000159  -0.125303  -0.000801
     3  C    0.003996  -0.050147  -0.050147   0.003996   0.367161   0.000717
     4  C    0.000158   0.004683   0.410311  -0.033648  -0.125304  -0.000802
     5  C    0.002814  -0.000896  -0.034790   0.384824   0.007455  -0.007256
     6  N   -0.026990   0.005758   0.005758  -0.026993  -0.000691   0.037946
     7  H    0.370815  -0.002839   0.000028  -0.000150  -0.000106  -0.002999
     8  H   -0.002839   0.393534  -0.000012   0.000028  -0.009383  -0.000115
     9  H    0.000028  -0.000012   0.393534  -0.002839  -0.009383  -0.000115
    10  H   -0.000150   0.000028  -0.002839   0.370813  -0.000106  -0.003001
    11  Cl  -0.000106  -0.009383  -0.009383  -0.000106  16.892130   0.000019
    12  Zn  -0.002999  -0.000115  -0.000115  -0.003001   0.000019  28.327115
    13  Cl   0.003434   0.000083   0.000001   0.000188   0.000000   0.125117
    14  Cl   0.000188   0.000001   0.000083   0.003433   0.000000   0.125115
              13         14
     1  C   -0.002639   0.001481
     2  C    0.002651  -0.000140
     3  C   -0.000085  -0.000085
     4  C   -0.000140   0.002653
     5  C    0.001481  -0.002639
     6  N   -0.020120  -0.020122
     7  H    0.003434   0.000188
     8  H    0.000083   0.000001
     9  H    0.000001   0.000083
    10  H    0.000188   0.003433
    11  Cl   0.000000   0.000000
    12  Zn   0.125117   0.125115
    13  Cl  17.659324  -0.027385
    14  Cl  -0.027385  17.659324
 Mulliken charges:
               1
     1  C    0.065139
     2  C   -0.250652
     3  C   -0.052346
     4  C   -0.250648
     5  C    0.065129
     6  N   -0.663707
     7  H    0.300475
     8  H    0.283784
     9  H    0.283784
    10  H    0.300484
    11  Cl  -0.003944
    12  Zn   1.406317
    13  Cl  -0.741908
    14  Cl  -0.741907
 Sum of Mulliken charges =  -0.00000
 Mulliken charges with hydrogens summed into heavy atoms:
               1
     1  C    0.365614
     2  C    0.033132
     3  C   -0.052346
     4  C    0.033135
     5  C    0.365613
     6  N   -0.663707
    11  Cl  -0.003944
    12  Zn   1.406317
    13  Cl  -0.741908
    14  Cl  -0.741907
 Electronic spatial extent (au):  <R**2>=           3949.0951
 Charge=             -0.0000 electrons
 Dipole moment (field-independent basis, Debye):
    X=             -9.8027    Y=             -0.0004    Z=              0.0002  Tot=              9.8027
 Quadrupole moment (field-independent basis, Debye-Ang):
   XX=           -107.9013   YY=           -100.4149   ZZ=            -88.0200
   XY=              0.0008   XZ=              0.0004   YZ=             -3.1224
 Traceless Quadrupole moment (field-independent basis, Debye-Ang):
   XX=             -9.1226   YY=             -1.6362   ZZ=             10.7587
   XY=              0.0008   XZ=              0.0004   YZ=             -3.1224
 Octapole moment (field-independent basis, Debye-Ang**2):
  XXX=            -41.8849  YYY=             -0.0058  ZZZ=              0.0004  XYY=            -64.2201
  XXY=              0.0034  XXZ=              0.0015  XZZ=             20.7980  YZZ=             -0.0001
  YYZ=              0.0009  XYZ=             -0.1357
 Hexadecapole moment (field-independent basis, Debye-Ang**3):
 XXXX=          -4086.1546 YYYY=          -1105.1316 ZZZZ=           -107.5946 XXXY=              0.0209
 XXXZ=              0.0069 YYYX=             -0.0027 YYYZ=            -15.9460 ZZZX=              0.0021
 ZZZY=             -1.4657 XXYY=           -954.0210 XXZZ=           -685.4115 YYZZ=           -202.7856
 XXYZ=            -16.3969 YYXZ=              0.0010 ZZXY=              0.0001
 N-N= 1.046403706498D+03 E-N=-1.020937405609D+04  KE= 3.402921406667D+03
 Running external command "gaunbo6 R"
         input file       "/gpfs/summit/scratch/lilianac@colostate.edu/10460574/Gau-166376.EIn"
         output file      "/gpfs/summit/scratch/lilianac@colostate.edu/10460574/Gau-166376.EOu"
         message file     "/gpfs/summit/scratch/lilianac@colostate.edu/10460574/Gau-166376.EMs"
         fchk file        "/gpfs/summit/scratch/lilianac@colostate.edu/10460574/Gau-166376.EFC"
         mat. el file     "/gpfs/summit/scratch/lilianac@colostate.edu/10460574/Gau-166376.EUF"

 Writing WrtUnf unformatted file "/gpfs/summit/scratch/lilianac@colostate.edu/10460574/Gau-166376.EUF"
 Gaussian matrix elements                                         Version   2 NLab=11 Len12L=8 Len4L=8
 Write SHELL TO ATOM MAP                   from file      0 offset           0 length                  96 to matrix element file.
 Write SHELL TYPES                         from file      0 offset           0 length                  96 to matrix element file.
 Write NUMBER OF PRIMITIVES PER SHELL      from file      0 offset           0 length                  96 to matrix element file.
 Write PRIMITIVE EXPONENTS                 from file      0 offset           0 length                 193 to matrix element file.
 Write CONTRACTION COEFFICIENTS            from file      0 offset           0 length                 193 to matrix element file.
 Write P(S=P) CONTRACTION COEFFICIENTS     from file      0 offset           0 length                 193 to matrix element file.
 Write COORDINATES OF EACH SHELL           from file      0 offset           0 length                 288 to matrix element file.
 Write BONDS PER ATOM                      from file      0 offset           0 length                  14 to matrix element file.
 Write BONDED ATOMS                        from file      0 offset           0 length                  28 to matrix element file.
 Write BOND TYPES                          from file      0 offset           0 length                  28 to matrix element file.
 Write ONIOM CHARGE/MULT                   from file      0 offset           0 length                  32 to matrix element file.
 Write ONIOM ATOM LAYERS                   from file      0 offset           0 length                  14 to matrix element file.
 Write ONIOM ATOM MODIFIERS                from file      0 offset           0 length                  14 to matrix element file.
 Write ONIOM ATOM TYPES                    from file      0 offset           0 length                  14 to matrix element file.
 Write ONIOM LINK ATOMS                    from file      0 offset           0 length                  14 to matrix element file.
 Write ONIOM LINK CHARGES                  from file      0 offset           0 length                  14 to matrix element file.
 Write ONIOM LINK DISTANCES                from file      0 offset           0 length                  56 to matrix element file.
 Write SYMINF INTS                         from file      0 offset           0 length                  26 to matrix element file.
 Write ROTTR TO SO                         from file      0 offset           0 length                  12 to matrix element file.
 Write GAUSSIAN SCALARS                    from file    501 offset           0 to matrix element file.
 Write OPTIMIZATION FLAGS                  from file      0 offset           0 length                  14 to matrix element file.
 Write INTEGER ISO                         from file      0 offset           0 length                  14 to matrix element file.
 Write INTEGER SPIN                        from file      0 offset           0 length                  14 to matrix element file.
 Write REAL ZEFFECTIVE                     from file      0 offset           0 length                  14 to matrix element file.
 Write REAL QUADRUPOLEMOMENT               from file      0 offset           0 length                  14 to matrix element file.
 Write REAL GFACTOR                        from file      0 offset           0 length                  14 to matrix element file.
 Write REAL ZNUCLEAR                       from file      0 offset           0 length                  14 to matrix element file.
 Write MULLIKEN CHARGES                    from file      0 offset           0 length                  14 to matrix element file.
 Write NUCLEAR GRADIENT                    from file  10584 offset           0 length                  42 to matrix element file.
 Array NUCLEAR FORCE CONSTANTS              on  file  10585 does not exist.
 Write ELECTRIC DIPOLE MOMENT              from file      0 offset           0 length                   3 to matrix element file.
 Write NON-ADIABATIC COUPLING              from file  10810 offset           0 length                  42 to matrix element file.
 Write FINITE EM FIELD                     from file  10521 offset           0 length                  35 to matrix element file.
 Write OVERLAP                             from file  10514 offset           0 length               29890 to matrix element file.
 Write CORE HAMILTONIAN ALPHA              from file  10515 offset           0 length               29890 to matrix element file.
 Write CORE HAMILTONIAN BETA               from file  10515 offset       29890 length               29890 to matrix element file.
 Write KINETIC ENERGY                      from file  10516 offset           0 length               29890 to matrix element file.
 Write ORTHOGONAL BASIS                    from file  10685 offset           0 length               59536 to matrix element file.
 Write DIPOLE INTEGRALS                    from file  10518 offset           0 length               89670 to matrix element file.
 Array DIP VEL INTEGRALS                    on  file  10572 does not exist.
 Array R X DEL INTEGRALS                    on  file  10572 does not exist.
 Write ALPHA ORBITAL ENERGIES              from file      0 offset           0 length                 244 to matrix element file.
 Write ALPHA MO COEFFICIENTS               from file  10524 offset           0 length               59536 to matrix element file.
 Write ALPHA DENSITY MATRIX                from file      0 offset           0 length               29890 to matrix element file.
 Write ALPHA FOCK MATRIX                   from file  10536 offset           0 length               29890 to matrix element file.
 Write ENERGY-WEIGHTED DENSITY             from file  10571 offset           0 length               29890 to matrix element file.
 Write ALPHA SCF DENSITY MATRIX            from file      0 offset           0 length               29890 to matrix element file.
 Write INTEGER PARAMETERS                  from file      0 offset           0 length                   2 to matrix element file.
 No 2e integrals to process.
 Perform NBO analysis...

 *********************************** NBO 7.0 ***********************************
             N A T U R A L   A T O M I C   O R B I T A L   A N D
          N A T U R A L   B O N D   O R B I T A L   A N A L Y S I S
 **************************** Robert Paton (I101709) ***************************
  (c) Copyright 1996-2019 Board of Regents of the University of Wisconsin System
      on behalf of the Theoretical Chemistry Institute.  All rights reserved.

          Cite this program [NBO 7.0.5 (4-Jun-2019)] as:

          NBO 7.0.  E. D. Glendening, J. K. Badenhoop, A. E. Reed,
          J. E. Carpenter, J. A. Bohmann, C. M. Morales, P. Karafiloglou,
          C. R. Landis, and F. Weinhold, Theoretical Chemistry Institute,
          University of Wisconsin, Madison, WI (2018)

       /AONBO  / : Checkpoint the AO to NBO transformation
                   NBOs sorted by occupancy

 Filename set to /gpfs/summit/scratch/lilianac@colostate.edu/10460574

 Job title:  ar06_Cl_NBO


 NATURAL POPULATIONS:  Natural atomic orbital occupancies

  NAO Atom No lang   Type(AO)    Occupancy      Energy
 -------------------------------------------------------
   1    C  1  s      Cor( 1s)     1.99999     -10.37541
   2    C  1  s      Val( 2s)     0.91465      -0.12997
   3    C  1  s      Ryd( 3s)     0.00323       0.77743
   4    C  1  s      Ryd( 4s)     0.00002      23.02955
   5    C  1  px     Val( 2p)     1.04899      -0.07064
   6    C  1  px     Ryd( 3p)     0.00858       0.98057
   7    C  1  px     Ryd( 4p)     0.00050       3.06435
   8    C  1  py     Val( 2p)     1.01755      -0.07449
   9    C  1  py     Ryd( 3p)     0.00775       1.11433
  10    C  1  py     Ryd( 4p)     0.00014       2.92714
  11    C  1  pz     Val( 2p)     0.88419      -0.15122
  12    C  1  pz     Ryd( 3p)     0.00145       0.62017
  13    C  1  pz     Ryd( 4p)     0.00004       2.64478
  14    C  1  dxy    Ryd( 3d)     0.00178       2.16718
  15    C  1  dxz    Ryd( 3d)     0.00070       1.64150
  16    C  1  dyz    Ryd( 3d)     0.00093       1.52703
  17    C  1  dx2y2  Ryd( 3d)     0.00124       2.23413
  18    C  1  dz2    Ryd( 3d)     0.00088       1.90914

  19    C  2  s      Cor( 1s)     1.99999     -10.34098
  20    C  2  s      Val( 2s)     0.96120      -0.13354
  21    C  2  s      Ryd( 3s)     0.00280       1.00918
  22    C  2  s      Ryd( 4s)     0.00001      23.26172
  23    C  2  px     Val( 2p)     1.10358      -0.09346
  24    C  2  px     Ryd( 3p)     0.00550       1.06924
  25    C  2  px     Ryd( 4p)     0.00021       3.32111
  26    C  2  py     Val( 2p)     1.17725      -0.12132
  27    C  2  py     Ryd( 3p)     0.00482       1.18466
  28    C  2  py     Ryd( 4p)     0.00019       3.04134
  29    C  2  pz     Val( 2p)     0.99936      -0.15778
  30    C  2  pz     Ryd( 3p)     0.00120       0.62234
  31    C  2  pz     Ryd( 4p)     0.00004       2.71377
  32    C  2  dxy    Ryd( 3d)     0.00118       2.14253
  33    C  2  dxz    Ryd( 3d)     0.00040       1.63188
  34    C  2  dyz    Ryd( 3d)     0.00071       1.55750
  35    C  2  dx2y2  Ryd( 3d)     0.00132       2.22639
  36    C  2  dz2    Ryd( 3d)     0.00091       1.94453

  37    C  3  s      Cor( 1s)     1.99999     -10.40812
  38    C  3  s      Val( 2s)     0.92821      -0.18262
  39    C  3  s      Ryd( 3s)     0.00084       0.92558
  40    C  3  s      Ryd( 4s)     0.00002      23.16410
  41    C  3  px     Val( 2p)     0.92975      -0.15271
  42    C  3  px     Ryd( 3p)     0.00703       1.03619
  43    C  3  px     Ryd( 4p)     0.00042       3.14473
  44    C  3  py     Val( 2p)     1.09216      -0.10151
  45    C  3  py     Ryd( 3p)     0.00663       0.91008
  46    C  3  py     Ryd( 4p)     0.00018       3.63214
  47    C  3  pz     Val( 2p)     0.99209      -0.18860
  48    C  3  pz     Ryd( 3p)     0.00139       0.63358
  49    C  3  pz     Ryd( 4p)     0.00001       2.73917
  50    C  3  dxy    Ryd( 3d)     0.00149       2.23264
  51    C  3  dxz    Ryd( 3d)     0.00173       1.52324
  52    C  3  dyz    Ryd( 3d)     0.00063       1.72571
  53    C  3  dx2y2  Ryd( 3d)     0.00198       2.15078
  54    C  3  dz2    Ryd( 3d)     0.00116       1.96498

  55    C  4  s      Cor( 1s)     1.99999     -10.34098
  56    C  4  s      Val( 2s)     0.96120      -0.13354
  57    C  4  s      Ryd( 3s)     0.00280       1.00918
  58    C  4  s      Ryd( 4s)     0.00001      23.26172
  59    C  4  px     Val( 2p)     1.10357      -0.09346
  60    C  4  px     Ryd( 3p)     0.00550       1.06922
  61    C  4  px     Ryd( 4p)     0.00021       3.32112
  62    C  4  py     Val( 2p)     1.17726      -0.12132
  63    C  4  py     Ryd( 3p)     0.00482       1.18467
  64    C  4  py     Ryd( 4p)     0.00019       3.04133
  65    C  4  pz     Val( 2p)     0.99936      -0.15778
  66    C  4  pz     Ryd( 3p)     0.00120       0.62234
  67    C  4  pz     Ryd( 4p)     0.00004       2.71377
  68    C  4  dxy    Ryd( 3d)     0.00118       2.14254
  69    C  4  dxz    Ryd( 3d)     0.00040       1.63189
  70    C  4  dyz    Ryd( 3d)     0.00071       1.55749
  71    C  4  dx2y2  Ryd( 3d)     0.00132       2.22638
  72    C  4  dz2    Ryd( 3d)     0.00091       1.94454

  73    C  5  s      Cor( 1s)     1.99999     -10.37541
  74    C  5  s      Val( 2s)     0.91465      -0.12997
  75    C  5  s      Ryd( 3s)     0.00323       0.77743
  76    C  5  s      Ryd( 4s)     0.00002      23.02958
  77    C  5  px     Val( 2p)     1.04900      -0.07065
  78    C  5  px     Ryd( 3p)     0.00858       0.98056
  79    C  5  px     Ryd( 4p)     0.00050       3.06437
  80    C  5  py     Val( 2p)     1.01754      -0.07449
  81    C  5  py     Ryd( 3p)     0.00775       1.11430
  82    C  5  py     Ryd( 4p)     0.00014       2.92719
  83    C  5  pz     Val( 2p)     0.88419      -0.15122
  84    C  5  pz     Ryd( 3p)     0.00145       0.62015
  85    C  5  pz     Ryd( 4p)     0.00004       2.64480
  86    C  5  dxy    Ryd( 3d)     0.00178       2.16717
  87    C  5  dxz    Ryd( 3d)     0.00070       1.64150
  88    C  5  dyz    Ryd( 3d)     0.00093       1.52704
  89    C  5  dx2y2  Ryd( 3d)     0.00124       2.23414
  90    C  5  dz2    Ryd( 3d)     0.00088       1.90913

  91    N  6  s      Cor( 1s)     1.99999     -14.51016
  92    N  6  s      Val( 2s)     1.35743      -0.51694
  93    N  6  s      Ryd( 3s)     0.00171       1.83720
  94    N  6  s      Ryd( 4s)     0.00000      35.33915
  95    N  6  px     Val( 2p)     1.68664      -0.38239
  96    N  6  px     Ryd( 3p)     0.01270       1.00020
  97    N  6  px     Ryd( 4p)     0.00004       4.27618
  98    N  6  py     Val( 2p)     1.26661      -0.25713
  99    N  6  py     Ryd( 3p)     0.00738       1.13742
 100    N  6  py     Ryd( 4p)     0.00006       4.79408
 101    N  6  pz     Val( 2p)     1.32955      -0.30571
 102    N  6  pz     Ryd( 3p)     0.00257       0.74366
 103    N  6  pz     Ryd( 4p)     0.00001       3.84996
 104    N  6  dxy    Ryd( 3d)     0.00211       2.83905
 105    N  6  dxz    Ryd( 3d)     0.00102       2.15163
 106    N  6  dyz    Ryd( 3d)     0.00046       2.32349
 107    N  6  dx2y2  Ryd( 3d)     0.00041       2.56944
 108    N  6  dz2    Ryd( 3d)     0.00092       2.45798

 109    H  7  s      Val( 1s)     0.76666       0.06112
 110    H  7  s      Ryd( 2s)     0.00101       0.43364
 111    H  7  s      Ryd( 3s)     0.00017       2.31726

 112    H  8  s      Val( 1s)     0.74572       0.07034
 113    H  8  s      Ryd( 2s)     0.00154       0.43503
 114    H  8  s      Ryd( 3s)     0.00010       2.33193

 115    H  9  s      Val( 1s)     0.74572       0.07034
 116    H  9  s      Ryd( 2s)     0.00154       0.43503
 117    H  9  s      Ryd( 3s)     0.00010       2.33193

 118    H 10  s      Val( 1s)     0.76666       0.06112
 119    H 10  s      Ryd( 2s)     0.00101       0.43365
 120    H 10  s      Ryd( 3s)     0.00017       2.31727

 121   Cl 11  s      Cor( 1s)     2.00000    -101.57127
 122   Cl 11  s      Cor( 2s)     1.99999      -9.81827
 123   Cl 11  s      Val( 3s)     1.82452      -0.82253
 124   Cl 11  s      Ryd( 4s)     0.00141       1.27123
 125   Cl 11  s      Ryd( 5s)     0.00000      16.12523
 126   Cl 11  s      Ryd( 6s)     0.00000     209.18526
 127   Cl 11  px     Cor( 2p)     2.00000      -7.37856
 128   Cl 11  px     Val( 3p)     1.24541      -0.32231
 129   Cl 11  px     Ryd( 4p)     0.00337       0.39282
 130   Cl 11  px     Ryd( 5p)     0.00004       4.12731
 131   Cl 11  px     Ryd( 6p)     0.00000      24.32908
 132   Cl 11  py     Cor( 2p)     2.00000      -7.36807
 133   Cl 11  py     Val( 3p)     1.96566      -0.42944
 134   Cl 11  py     Ryd( 4p)     0.00237       0.43632
 135   Cl 11  py     Ryd( 5p)     0.00000       3.29929
 136   Cl 11  py     Ryd( 6p)     0.00000      24.68622
 137   Cl 11  pz     Cor( 2p)     2.00000      -7.36872
 138   Cl 11  pz     Val( 3p)     1.90658      -0.42352
 139   Cl 11  pz     Ryd( 4p)     0.00255       0.41298
 140   Cl 11  pz     Ryd( 5p)     0.00000       2.98447
 141   Cl 11  pz     Ryd( 6p)     0.00000      24.67549
 142   Cl 11  dxy    Ryd( 3d)     0.00136       1.16774
 143   Cl 11  dxz    Ryd( 3d)     0.00224       1.00512
 144   Cl 11  dyz    Ryd( 3d)     0.00003       0.92422
 145   Cl 11  dx2y2  Ryd( 3d)     0.00497       1.29306
 146   Cl 11  dz2    Ryd( 3d)     0.00152       1.03445

 147   Zn 12  s      Cor( 1s)     2.00000    -347.31198
 148   Zn 12  s      Cor( 2s)     2.00000     -41.82169
 149   Zn 12  s      Cor( 3s)     2.00000      -5.67691
 150   Zn 12  s      Val( 4s)     0.44982      -0.02054
 151   Zn 12  s      Ryd( 5s)     0.00290       0.24293
 152   Zn 12  s      Ryd( 6s)     0.00032      10.59007
 153   Zn 12  s      Ryd( 7s)     0.00000      69.63616
 154   Zn 12  s      Ryd( 9s)     0.00000     684.87691
 155   Zn 12  s      Ryd( 8s)     0.00000     439.31099
 156   Zn 12  px     Cor( 2p)     2.00000     -37.24442
 157   Zn 12  px     Cor( 3p)     1.99999      -3.42738
 158   Zn 12  px     Ryd( 4p)     0.00238       2.03116
 159   Zn 12  px     Ryd( 5p)     0.00000      13.87138
 160   Zn 12  px     Ryd( 6p)     0.00000      40.90184
 161   Zn 12  py     Cor( 2p)     2.00000     -37.24486
 162   Zn 12  py     Cor( 3p)     1.99998      -3.42949
 163   Zn 12  py     Ryd( 4p)     0.00661       1.60738
 164   Zn 12  py     Ryd( 5p)     0.00000      13.59330
 165   Zn 12  py     Ryd( 6p)     0.00000      40.86912
 166   Zn 12  pz     Cor( 2p)     2.00000     -37.24815
 167   Zn 12  pz     Cor( 3p)     1.99999      -3.43273
 168   Zn 12  pz     Ryd( 4p)     0.00067       1.44717
 169   Zn 12  pz     Ryd( 5p)     0.00000      13.32129
 170   Zn 12  pz     Ryd( 6p)     0.00000      40.84442
 171   Zn 12  dxy    Val( 3d)     1.99293      -0.60702
 172   Zn 12  dxy    Ryd( 4d)     0.00090       1.78330
 173   Zn 12  dxy    Ryd( 5d)     0.00000       7.83248
 174   Zn 12  dxz    Val( 3d)     1.99673      -0.61050
 175   Zn 12  dxz    Ryd( 4d)     0.00012       1.58855
 176   Zn 12  dxz    Ryd( 5d)     0.00000       7.72753
 177   Zn 12  dyz    Val( 3d)     1.99897      -0.61334
 178   Zn 12  dyz    Ryd( 4d)     0.00046       1.54006
 179   Zn 12  dyz    Ryd( 5d)     0.00000       7.71079
 180   Zn 12  dx2y2  Val( 3d)     1.99591      -0.60728
 181   Zn 12  dx2y2  Ryd( 4d)     0.00077       1.72234
 182   Zn 12  dx2y2  Ryd( 5d)     0.00001       7.83384
 183   Zn 12  dz2    Val( 3d)     1.98457      -0.60918
 184   Zn 12  dz2    Ryd( 4d)     0.00053       1.69769
 185   Zn 12  dz2    Ryd( 5d)     0.00000       7.78930
 186   Zn 12  f(0)   Ryd( 4f)     0.00001       4.37498
 187   Zn 12  f(c1)  Ryd( 4f)     0.00001       4.38102
 188   Zn 12  f(s1)  Ryd( 4f)     0.00002       4.38707
 189   Zn 12  f(c2)  Ryd( 4f)     0.00001       4.37778
 190   Zn 12  f(s2)  Ryd( 4f)     0.00000       4.37445
 191   Zn 12  f(c3)  Ryd( 4f)     0.00003       4.41956
 192   Zn 12  f(s3)  Ryd( 4f)     0.00002       4.39964

 193   Cl 13  s      Cor( 1s)     2.00000    -101.51771
 194   Cl 13  s      Cor( 2s)     1.99999      -9.68391
 195   Cl 13  s      Val( 3s)     1.97495      -0.85294
 196   Cl 13  s      Ryd( 4s)     0.00209       0.98092
 197   Cl 13  s      Ryd( 5s)     0.00000      12.61316
 198   Cl 13  s      Ryd( 6s)     0.00000     212.56638
 199   Cl 13  px     Cor( 2p)     2.00000      -7.28125
 200   Cl 13  px     Val( 3p)     1.97509      -0.37805
 201   Cl 13  px     Ryd( 4p)     0.00058       0.48870
 202   Cl 13  px     Ryd( 5p)     0.00003       2.29351
 203   Cl 13  px     Ryd( 6p)     0.00000      25.66112
 204   Cl 13  py     Cor( 2p)     2.00000      -7.28454
 205   Cl 13  py     Val( 3p)     1.85716      -0.37893
 206   Cl 13  py     Ryd( 4p)     0.00157       0.52870
 207   Cl 13  py     Ryd( 5p)     0.00012       2.36553
 208   Cl 13  py     Ryd( 6p)     0.00000      25.79418
 209   Cl 13  pz     Cor( 2p)     2.00000      -7.28070
 210   Cl 13  pz     Val( 3p)     1.99798      -0.37752
 211   Cl 13  pz     Ryd( 4p)     0.00034       0.40389
 212   Cl 13  pz     Ryd( 5p)     0.00001       2.22326
 213   Cl 13  pz     Ryd( 6p)     0.00000      25.52589
 214   Cl 13  dxy    Ryd( 3d)     0.00181       1.01747
 215   Cl 13  dxz    Ryd( 3d)     0.00018       0.99543
 216   Cl 13  dyz    Ryd( 3d)     0.00082       0.98595
 217   Cl 13  dx2y2  Ryd( 3d)     0.00188       1.03013
 218   Cl 13  dz2    Ryd( 3d)     0.00088       1.01996

 219   Cl 14  s      Cor( 1s)     2.00000    -101.51771
 220   Cl 14  s      Cor( 2s)     1.99999      -9.68392
 221   Cl 14  s      Val( 3s)     1.97495      -0.85294
 222   Cl 14  s      Ryd( 4s)     0.00209       0.98094
 223   Cl 14  s      Ryd( 5s)     0.00000      12.61325
 224   Cl 14  s      Ryd( 6s)     0.00000     212.56631
 225   Cl 14  px     Cor( 2p)     2.00000      -7.28125
 226   Cl 14  px     Val( 3p)     1.97510      -0.37805
 227   Cl 14  px     Ryd( 4p)     0.00058       0.48870
 228   Cl 14  px     Ryd( 5p)     0.00003       2.29350
 229   Cl 14  px     Ryd( 6p)     0.00000      25.66110
 230   Cl 14  py     Cor( 2p)     2.00000      -7.28454
 231   Cl 14  py     Val( 3p)     1.85716      -0.37893
 232   Cl 14  py     Ryd( 4p)     0.00157       0.52870
 233   Cl 14  py     Ryd( 5p)     0.00012       2.36554
 234   Cl 14  py     Ryd( 6p)     0.00000      25.79420
 235   Cl 14  pz     Cor( 2p)     2.00000      -7.28070
 236   Cl 14  pz     Val( 3p)     1.99798      -0.37752
 237   Cl 14  pz     Ryd( 4p)     0.00034       0.40389
 238   Cl 14  pz     Ryd( 5p)     0.00001       2.22326
 239   Cl 14  pz     Ryd( 6p)     0.00000      25.52589
 240   Cl 14  dxy    Ryd( 3d)     0.00181       1.01746
 241   Cl 14  dxz    Ryd( 3d)     0.00018       0.99543
 242   Cl 14  dyz    Ryd( 3d)     0.00082       0.98595
 243   Cl 14  dx2y2  Ryd( 3d)     0.00188       1.03014
 244   Cl 14  dz2    Ryd( 3d)     0.00088       1.01996


 Summary of Natural Population Analysis:

                                     Natural Population
             Natural    ---------------------------------------------
  Atom No    Charge        Core      Valence    Rydberg      Total
 --------------------------------------------------------------------
    C  1    0.10739      1.99999     3.86538    0.02724     5.89261
    C  2   -0.26068      1.99999     4.24138    0.01931     6.26068
    C  3    0.03430      1.99999     3.94221    0.02351     5.96570
    C  4   -0.26068      1.99999     4.24138    0.01931     6.26068
    C  5    0.10738      1.99999     3.86539    0.02724     5.89262
    N  6   -0.66961      1.99999     5.64023    0.02939     7.66961
    H  7    0.23216      0.00000     0.76666    0.00118     0.76784
    H  8    0.25264      0.00000     0.74572    0.00164     0.74736
    H  9    0.25264      0.00000     0.74572    0.00164     0.74736
    H 10    0.23216      0.00000     0.76666    0.00118     0.76784
   Cl 11    0.03797      9.99998     6.94217    0.01987    16.96203
   Zn 12    1.56534     17.99996    10.41893    0.01576    28.43466
   Cl 13   -0.81551      9.99999     7.80518    0.01033    17.81551
   Cl 14   -0.81551      9.99999     7.80518    0.01033    17.81551
 ====================================================================
 * Total *  0.00000     59.99987    61.79220    0.20793   122.00000

                                 Natural Population
 ---------------------------------------------------------
   Core                      59.99987 ( 99.9998% of   60)
   Valence                   61.79220 ( 99.6648% of   62)
   Natural Minimal Basis    121.79207 ( 99.8296% of  122)
   Natural Rydberg Basis      0.20793 (  0.1704% of  122)
 ---------------------------------------------------------

    Atom No         Natural Electron Configuration
 ----------------------------------------------------------------------------
      C  1      [core]2s( 0.91)2p( 2.95)3p( 0.02)3d( 0.01)
      C  2      [core]2s( 0.96)2p( 3.28)3p( 0.01)
      C  3      [core]2s( 0.93)2p( 3.01)3p( 0.02)3d( 0.01)
      C  4      [core]2s( 0.96)2p( 3.28)3p( 0.01)
      C  5      [core]2s( 0.91)2p( 2.95)3p( 0.02)3d( 0.01)
      N  6      [core]2s( 1.36)2p( 4.28)3p( 0.02)
      H  7            1s( 0.77)
      H  8            1s( 0.75)
      H  9            1s( 0.75)
      H 10            1s( 0.77)
     Cl 11      [core]3s( 1.82)3p( 5.12)3d( 0.01)4p( 0.01)
     Zn 12      [core]4s( 0.45)3d( 9.97)4p( 0.01)
     Cl 13      [core]3s( 1.97)3p( 5.83)3d( 0.01)
     Cl 14      [core]3s( 1.97)3p( 5.83)3d( 0.01)


 NATURAL BOND ORBITAL ANALYSIS:

                            Occupancies       Lewis Structure    Low   High
         Max    Occ     -------------------  -----------------   occ   occ
  Cycle  Ctr   Thresh    Lewis   non-Lewis     CR  BD  nC  LP    (L)   (NL)
 ============================================================================
    1     2     1.90   118.62127   3.37873     30  12   0  19     5      4
    2     2     1.89   118.62127   3.37873     30  12   0  19     5      4
    3     2     1.86   118.64128   3.35872     30  12   0  19     4      4
    4     2     1.81   118.46154   3.53846     30  11   0  20     3      4
    5     2     1.77   118.89939   3.10061     30  12   0  19     2      4
    6     2     1.62   120.15473   1.84527     30  14   0  17     0      4
 ----------------------------------------------------------------------------

 Structure accepted: No low occupancy Lewis orbitals

 -------------------------------------------------------
   Core                     59.99987 (100.000% of  60)
   Valence Lewis            60.15486 ( 97.024% of  62)
  ==================      =============================
   Total Lewis             120.15473 ( 98.487% of 122)
  -----------------------------------------------------
   Valence non-Lewis         1.72717 (  1.416% of 122)
   Rydberg non-Lewis         0.11811 (  0.097% of 122)
  ==================      =============================
   Total non-Lewis           1.84527 (  1.513% of 122)
 -------------------------------------------------------


     (Occupancy)   Bond orbital / Coefficients / Hybrids
 ------------------ Lewis ------------------------------------------------------
   1. (1.99999) CR ( 1) C  1            s(100.00%)
                                         1.0000  0.0000  0.0000  0.0000  0.0000
                                         0.0000  0.0000  0.0000  0.0000  0.0000
                                         0.0000  0.0000  0.0000  0.0000  0.0000
                                         0.0000  0.0000  0.0000
   2. (1.99999) CR ( 1) C  2            s(100.00%)
                                         1.0000  0.0000  0.0000  0.0000  0.0000
                                         0.0000  0.0000  0.0000  0.0000  0.0000
                                         0.0000  0.0000  0.0000  0.0000  0.0000
                                         0.0000  0.0000  0.0000
   3. (1.99999) CR ( 1) C  3            s(100.00%)
                                         1.0000  0.0000  0.0000  0.0000  0.0000
                                         0.0000  0.0000  0.0000  0.0000  0.0000
                                         0.0000  0.0000  0.0000  0.0000  0.0000
                                         0.0000  0.0000  0.0000
   4. (1.99999) CR ( 1) C  4            s(100.00%)
                                         1.0000  0.0000  0.0000  0.0000  0.0000
                                         0.0000  0.0000  0.0000  0.0000  0.0000
                                         0.0000  0.0000  0.0000  0.0000  0.0000
                                         0.0000  0.0000  0.0000
   5. (1.99999) CR ( 1) C  5            s(100.00%)
                                         1.0000  0.0000  0.0000  0.0000  0.0000
                                         0.0000  0.0000  0.0000  0.0000  0.0000
                                         0.0000  0.0000  0.0000  0.0000  0.0000
                                         0.0000  0.0000  0.0000
   6. (1.99999) CR ( 1) N  6            s(100.00%)
                                         1.0000  0.0000  0.0000  0.0000  0.0000
                                         0.0000  0.0000  0.0000  0.0000  0.0000
                                         0.0000  0.0000  0.0000  0.0000  0.0000
                                         0.0000  0.0000  0.0000
   7. (2.00000) CR ( 1)Cl 11            s(100.00%)
                                         1.0000  0.0000  0.0000  0.0000  0.0000
                                         0.0000  0.0000  0.0000  0.0000  0.0000
                                         0.0000  0.0000  0.0000  0.0000  0.0000
                                         0.0000  0.0000  0.0000  0.0000  0.0000
                                         0.0000  0.0000  0.0000  0.0000  0.0000
                                         0.0000
   8. (1.99999) CR ( 2)Cl 11            s(100.00%)
                                         0.0000  1.0000  0.0000  0.0000  0.0000
                                         0.0000  0.0000  0.0000  0.0000  0.0000
                                         0.0000  0.0000  0.0000  0.0000  0.0000
                                         0.0000  0.0000  0.0000  0.0000  0.0000
                                         0.0000  0.0000  0.0000  0.0000  0.0000
                                         0.0000
   9. (2.00000) CR ( 3)Cl 11            s(  0.00%)p 1.00(100.00%)
                                         0.0000  0.0000  0.0000  0.0000  0.0000
                                         0.0000  1.0000  0.0000  0.0000  0.0000
                                         0.0000  0.0000  0.0000  0.0000  0.0000
                                         0.0000  0.0000  0.0000  0.0000  0.0000
                                         0.0000  0.0000  0.0000  0.0000  0.0000
                                         0.0000
  10. (2.00000) CR ( 4)Cl 11            s(  0.00%)p 1.00(100.00%)
                                         0.0000  0.0000  0.0000  0.0000  0.0000
                                         0.0000  0.0000  0.0000  0.0000  0.0000
                                         0.0000  1.0000  0.0000  0.0000  0.0000
                                         0.0000  0.0000  0.0000  0.0000  0.0000
                                         0.0000  0.0000  0.0000  0.0000  0.0000
                                         0.0000
  11. (2.00000) CR ( 5)Cl 11            s(  0.00%)p 1.00(100.00%)
                                         0.0000  0.0000  0.0000  0.0000  0.0000
                                         0.0000  0.0000  0.0000  0.0000  0.0000
                                         0.0000  0.0000  0.0000  0.0000  0.0000
                                         0.0000  1.0000  0.0000  0.0000  0.0000
                                         0.0000  0.0000  0.0000  0.0000  0.0000
                                         0.0000
  12. (2.00000) CR ( 1)Zn 12            s(100.00%)
                                         1.0000  0.0000  0.0000  0.0000  0.0000
                                         0.0000  0.0000  0.0000  0.0000  0.0000
                                         0.0000  0.0000  0.0000  0.0000  0.0000
                                         0.0000  0.0000  0.0000  0.0000  0.0000
                                         0.0000  0.0000  0.0000  0.0000  0.0000
                                         0.0000  0.0000  0.0000  0.0000  0.0000
                                         0.0000  0.0000  0.0000  0.0000  0.0000
                                         0.0000  0.0000  0.0000  0.0000  0.0000
                                         0.0000  0.0000  0.0000  0.0000  0.0000
                                         0.0000
  13. (2.00000) CR ( 2)Zn 12            s(100.00%)
                                         0.0000  1.0000  0.0000  0.0000  0.0000
                                         0.0000  0.0000  0.0000  0.0000  0.0000
                                         0.0000  0.0000  0.0000  0.0000  0.0000
                                         0.0000  0.0000  0.0000  0.0000  0.0000
                                         0.0000  0.0000  0.0000  0.0000  0.0000
                                         0.0000  0.0000  0.0000  0.0000  0.0000
                                         0.0000  0.0000  0.0000  0.0000  0.0000
                                         0.0000  0.0000  0.0000  0.0000  0.0000
                                         0.0000  0.0000  0.0000  0.0000  0.0000
                                         0.0000
  14. (2.00000) CR ( 3)Zn 12            s(100.00%)
                                         0.0000  0.0000  1.0000  0.0000  0.0000
                                         0.0000  0.0000  0.0000  0.0000  0.0000
                                         0.0000  0.0000  0.0000  0.0000  0.0000
                                         0.0000  0.0000  0.0000  0.0000  0.0000
                                         0.0000  0.0000  0.0000  0.0000  0.0000
                                         0.0000  0.0000  0.0000  0.0000  0.0000
                                         0.0000  0.0000  0.0000  0.0000  0.0000
                                         0.0000  0.0000  0.0000  0.0000  0.0000
                                         0.0000  0.0000  0.0000  0.0000  0.0000
                                         0.0000
  15. (2.00000) CR ( 4)Zn 12            s(  0.00%)p 1.00(100.00%)
                                         0.0000  0.0000  0.0000  0.0000  0.0000
                                         0.0000  0.0000  0.0000  0.0000  1.0000
                                         0.0000  0.0000  0.0000  0.0000  0.0000
                                         0.0000  0.0000  0.0000  0.0000  0.0000
                                         0.0000  0.0000  0.0000  0.0000  0.0000
                                         0.0000  0.0000  0.0000  0.0000  0.0000
                                         0.0000  0.0000  0.0000  0.0000  0.0000
                                         0.0000  0.0000  0.0000  0.0000  0.0000
                                         0.0000  0.0000  0.0000  0.0000  0.0000
                                         0.0000
  16. (1.99999) CR ( 5)Zn 12            s(  0.00%)p 1.00(100.00%)
                                         0.0000  0.0000  0.0000  0.0000  0.0000
                                         0.0000  0.0000  0.0000  0.0000  0.0000
                                         1.0000  0.0000  0.0000  0.0000  0.0000
                                         0.0000  0.0000  0.0000  0.0000  0.0000
                                         0.0000  0.0000  0.0000  0.0000  0.0000
                                         0.0000  0.0000  0.0000  0.0000  0.0000
                                         0.0000  0.0000  0.0000  0.0000  0.0000
                                         0.0000  0.0000  0.0000  0.0000  0.0000
                                         0.0000  0.0000  0.0000  0.0000  0.0000
                                         0.0000
  17. (2.00000) CR ( 6)Zn 12            s(  0.00%)p 1.00(100.00%)
                                         0.0000  0.0000  0.0000  0.0000  0.0000
                                         0.0000  0.0000  0.0000  0.0000  0.0000
                                         0.0000  0.0000  0.0000  0.0000  1.0000
                                         0.0000  0.0000  0.0000  0.0000  0.0000
                                         0.0000  0.0000  0.0000  0.0000  0.0000
                                         0.0000  0.0000  0.0000  0.0000  0.0000
                                         0.0000  0.0000  0.0000  0.0000  0.0000
                                         0.0000  0.0000  0.0000  0.0000  0.0000
                                         0.0000  0.0000  0.0000  0.0000  0.0000
                                         0.0000
  18. (1.99998) CR ( 7)Zn 12            s(  0.00%)p 1.00(100.00%)
                                         0.0000  0.0000  0.0000  0.0000  0.0000
                                         0.0000  0.0000  0.0000  0.0000  0.0000
                                         0.0000  0.0000  0.0000  0.0000  0.0000
                                         1.0000  0.0000  0.0000  0.0000  0.0000
                                         0.0000  0.0000  0.0000  0.0000  0.0000
                                         0.0000  0.0000  0.0000  0.0000  0.0000
                                         0.0000  0.0000  0.0000  0.0000  0.0000
                                         0.0000  0.0000  0.0000  0.0000  0.0000
                                         0.0000  0.0000  0.0000  0.0000  0.0000
                                         0.0000
  19. (2.00000) CR ( 8)Zn 12            s(  0.00%)p 1.00(100.00%)
                                         0.0000  0.0000  0.0000  0.0000  0.0000
                                         0.0000  0.0000  0.0000  0.0000  0.0000
                                         0.0000  0.0000  0.0000  0.0000  0.0000
                                         0.0000  0.0000  0.0000  0.0000  1.0000
                                         0.0000  0.0000  0.0000  0.0000  0.0000
                                         0.0000  0.0000  0.0000  0.0000  0.0000
                                         0.0000  0.0000  0.0000  0.0000  0.0000
                                         0.0000  0.0000  0.0000  0.0000  0.0000
                                         0.0000  0.0000  0.0000  0.0000  0.0000
                                         0.0000
  20. (1.99999) CR ( 9)Zn 12            s(  0.00%)p 1.00(100.00%)
                                         0.0000  0.0000  0.0000  0.0000  0.0000
                                         0.0000  0.0000  0.0000  0.0000  0.0000
                                         0.0000  0.0000  0.0000  0.0000  0.0000
                                         0.0000  0.0000  0.0000  0.0000  0.0000
                                         1.0000  0.0000  0.0000  0.0000  0.0000
                                         0.0000  0.0000  0.0000  0.0000  0.0000
                                         0.0000  0.0000  0.0000  0.0000  0.0000
                                         0.0000  0.0000  0.0000  0.0000  0.0000
                                         0.0000  0.0000  0.0000  0.0000  0.0000
                                         0.0000
  21. (2.00000) CR ( 1)Cl 13            s(100.00%)
                                         1.0000  0.0000  0.0000  0.0000  0.0000
                                         0.0000  0.0000  0.0000  0.0000  0.0000
                                         0.0000  0.0000  0.0000  0.0000  0.0000
                                         0.0000  0.0000  0.0000  0.0000  0.0000
                                         0.0000  0.0000  0.0000  0.0000  0.0000
                                         0.0000
  22. (1.99999) CR ( 2)Cl 13            s(100.00%)
                                         0.0000  1.0000  0.0000  0.0000  0.0000
                                         0.0000  0.0000  0.0000  0.0000  0.0000
                                         0.0000  0.0000  0.0000  0.0000  0.0000
                                         0.0000  0.0000  0.0000  0.0000  0.0000
                                         0.0000  0.0000  0.0000  0.0000  0.0000
                                         0.0000
  23. (2.00000) CR ( 3)Cl 13            s(  0.00%)p 1.00(100.00%)
                                         0.0000  0.0000  0.0000  0.0000  0.0000
                                         0.0000  1.0000  0.0000  0.0000  0.0000
                                         0.0000  0.0000  0.0000  0.0000  0.0000
                                         0.0000  0.0000  0.0000  0.0000  0.0000
                                         0.0000  0.0000  0.0000  0.0000  0.0000
                                         0.0000
  24. (2.00000) CR ( 4)Cl 13            s(  0.00%)p 1.00(100.00%)
                                         0.0000  0.0000  0.0000  0.0000  0.0000
                                         0.0000  0.0000  0.0000  0.0000  0.0000
                                         0.0000  1.0000  0.0000  0.0000  0.0000
                                         0.0000  0.0000  0.0000  0.0000  0.0000
                                         0.0000  0.0000  0.0000  0.0000  0.0000
                                         0.0000
  25. (2.00000) CR ( 5)Cl 13            s(  0.00%)p 1.00(100.00%)
                                         0.0000  0.0000  0.0000  0.0000  0.0000
                                         0.0000  0.0000  0.0000  0.0000  0.0000
                                         0.0000  0.0000  0.0000  0.0000  0.0000
                                         0.0000  1.0000  0.0000  0.0000  0.0000
                                         0.0000  0.0000  0.0000  0.0000  0.0000
                                         0.0000
  26. (2.00000) CR ( 1)Cl 14            s(100.00%)
                                         1.0000  0.0000  0.0000  0.0000  0.0000
                                         0.0000  0.0000  0.0000  0.0000  0.0000
                                         0.0000  0.0000  0.0000  0.0000  0.0000
                                         0.0000  0.0000  0.0000  0.0000  0.0000
                                         0.0000  0.0000  0.0000  0.0000  0.0000
                                         0.0000
  27. (1.99999) CR ( 2)Cl 14            s(100.00%)
                                         0.0000  1.0000  0.0000  0.0000  0.0000
                                         0.0000  0.0000  0.0000  0.0000  0.0000
                                         0.0000  0.0000  0.0000  0.0000  0.0000
                                         0.0000  0.0000  0.0000  0.0000  0.0000
                                         0.0000  0.0000  0.0000  0.0000  0.0000
                                         0.0000
  28. (2.00000) CR ( 3)Cl 14            s(  0.00%)p 1.00(100.00%)
                                         0.0000  0.0000  0.0000  0.0000  0.0000
                                         0.0000  1.0000  0.0000  0.0000  0.0000
                                         0.0000  0.0000  0.0000  0.0000  0.0000
                                         0.0000  0.0000  0.0000  0.0000  0.0000
                                         0.0000  0.0000  0.0000  0.0000  0.0000
                                         0.0000
  29. (2.00000) CR ( 4)Cl 14            s(  0.00%)p 1.00(100.00%)
                                         0.0000  0.0000  0.0000  0.0000  0.0000
                                         0.0000  0.0000  0.0000  0.0000  0.0000
                                         0.0000  1.0000  0.0000  0.0000  0.0000
                                         0.0000  0.0000  0.0000  0.0000  0.0000
                                         0.0000  0.0000  0.0000  0.0000  0.0000
                                         0.0000
  30. (2.00000) CR ( 5)Cl 14            s(  0.00%)p 1.00(100.00%)
                                         0.0000  0.0000  0.0000  0.0000  0.0000
                                         0.0000  0.0000  0.0000  0.0000  0.0000
                                         0.0000  0.0000  0.0000  0.0000  0.0000
                                         0.0000  1.0000  0.0000  0.0000  0.0000
                                         0.0000  0.0000  0.0000  0.0000  0.0000
                                         0.0000
  31. (1.86993) LP ( 1) N  6            s( 25.55%)p 2.91( 74.44%)d 0.00(  0.01%)
                                         0.0000  0.5050 -0.0217  0.0000  0.8606
                                        -0.0615 -0.0004  0.0000  0.0000  0.0000
                                         0.0000  0.0000  0.0000  0.0000  0.0000
                                         0.0006 -0.0063  0.0067
  32. (1.99240) LP ( 1)Cl 11            s( 81.49%)p 0.23( 18.49%)d 0.00(  0.02%)
                                         0.0000  0.0000  0.9027 -0.0087  0.0000
                                         0.0000  0.0000 -0.4296 -0.0190  0.0006
                                        -0.0005  0.0000  0.0000  0.0000  0.0000
                                         0.0000  0.0000  0.0000  0.0000  0.0000
                                         0.0000  0.0000  0.0000 -0.0002 -0.0119
                                         0.0061
  33. (1.96781) LP ( 2)Cl 11            s(  0.00%)p 1.00( 99.97%)d 0.00(  0.03%)
                                         0.0000  0.0000  0.0000  0.0000  0.0000
                                         0.0000  0.0000  0.0000  0.0000  0.0000
                                         0.0000  0.0000  0.9900 -0.0146  0.0002
                                         0.0001  0.0000 -0.1394  0.0021  0.0000
                                         0.0000  0.0163 -0.0023  0.0000  0.0000
                                         0.0000
  34. (1.90675) LP ( 3)Cl 11            s(  0.00%)p 1.00( 99.96%)d 0.00(  0.04%)
                                         0.0000  0.0000  0.0000  0.0000  0.0000
                                         0.0000  0.0000  0.0000  0.0000  0.0000
                                         0.0000  0.0000  0.1394 -0.0023 -0.0001
                                        -0.0001  0.0000  0.9899 -0.0167 -0.0008
                                        -0.0007  0.0029  0.0205  0.0000  0.0000
                                         0.0000
  35. (1.99930) LP ( 1)Zn 12            s(  0.77%)p 0.00(  0.00%)d99.99( 99.23%)
                                                  f 0.00(  0.00%)
                                         0.0000  0.0000  0.0000  0.0838 -0.0259
                                        -0.0045  0.0001  0.0000  0.0000  0.0000
                                         0.0000  0.0017  0.0000  0.0000  0.0000
                                         0.0000  0.0000  0.0000  0.0000  0.0000
                                         0.0000  0.0000  0.0000  0.0000  0.0000
                                         0.0000  0.0000  0.0001  0.0000  0.0000
                                        -0.1908  0.0000  0.0000 -0.1996  0.0017
                                         0.0001  0.9571 -0.0009  0.0000  0.0000
                                         0.0003  0.0000  0.0000  0.0000  0.0000
                                         0.0000
  36. (1.99911) LP ( 2)Zn 12            s(  0.01%)p 0.00(  0.00%)d99.99( 99.99%)
                                                  f 0.00(  0.00%)
                                         0.0000  0.0000  0.0000  0.0089 -0.0049
                                        -0.0006  0.0000  0.0000  0.0000  0.0000
                                         0.0000  0.0002  0.0000  0.0000  0.0000
                                         0.0000  0.0000  0.0000  0.0000  0.0000
                                         0.0000  0.0000  0.0000  0.0000  0.0000
                                         0.0000  0.0000  0.0000  0.0000  0.0000
                                         0.9803  0.0002  0.0000  0.0117 -0.0001
                                         0.0000  0.1969  0.0001  0.0000  0.0000
                                         0.0000  0.0000  0.0000  0.0002  0.0000
                                         0.0000
  37. (1.99726) LP ( 3)Zn 12            s(  0.22%)p 0.01(  0.00%)d99.99( 99.78%)
                                                  f 0.00(  0.00%)
                                         0.0000  0.0000  0.0000  0.0423 -0.0197
                                        -0.0017  0.0001  0.0000  0.0000  0.0000
                                         0.0000 -0.0044 -0.0002  0.0000  0.0000
                                         0.0000  0.0000  0.0000  0.0000  0.0000
                                         0.0000  0.0000  0.0000  0.0000  0.0001
                                         0.0000  0.0000 -0.0001  0.0000  0.0000
                                        -0.0503 -0.0002  0.0000  0.9794  0.0013
                                         0.0003  0.1900  0.0010  0.0000  0.0000
                                        -0.0001  0.0000  0.0000  0.0000  0.0006
                                         0.0000
  38. (1.99674) LP ( 4)Zn 12            s(  0.00%)p 0.00(  0.00%)d 1.00(100.00%)
                                                  f 0.00(  0.00%)
                                         0.0000  0.0000  0.0000  0.0000  0.0000
                                         0.0000  0.0000  0.0000  0.0000  0.0000
                                         0.0000  0.0000  0.0000  0.0000  0.0000
                                         0.0000  0.0002  0.0000  0.0000  0.0000
                                         0.0000 -0.0001  0.0000  0.0000  0.0207
                                         0.0001  0.0000  0.9998 -0.0018 -0.0002
                                         0.0000  0.0000  0.0000  0.0002  0.0000
                                         0.0000  0.0000  0.0000  0.0000 -0.0002
                                         0.0000  0.0000  0.0003  0.0000  0.0000
                                         0.0000
  39. (1.99296) LP ( 5)Zn 12            s(  0.00%)p 0.00(  0.00%)d 1.00(100.00%)
                                                  f 0.00(  0.00%)
                                         0.0000  0.0000  0.0000  0.0000  0.0000
                                         0.0000  0.0000  0.0000  0.0000  0.0000
                                         0.0000  0.0000  0.0000  0.0000  0.0000
                                         0.0000  0.0040  0.0000  0.0001  0.0000
                                         0.0000 -0.0001  0.0000  0.0000  0.9998
                                         0.0007  0.0000 -0.0207  0.0002  0.0000
                                         0.0000  0.0000  0.0000 -0.0001  0.0000
                                         0.0000  0.0000  0.0000  0.0000  0.0000
                                         0.0000 -0.0001  0.0000  0.0000  0.0000
                                         0.0002
  40. (1.99942) LP ( 1)Cl 13            s( 86.44%)p 0.16( 13.56%)d 0.00(  0.00%)
                                         0.0000  0.0000  0.9297  0.0098 -0.0001
                                         0.0000  0.0000  0.1831  0.0006  0.0013
                                         0.0000  0.0000 -0.3148 -0.0015 -0.0024
                                         0.0000  0.0000 -0.0550  0.0002 -0.0002
                                         0.0000  0.0025  0.0004 -0.0009  0.0007
                                         0.0012
  41. (1.99915) LP ( 2)Cl 13            s(  0.08%)p99.99( 99.88%)d 0.43(  0.04%)
                                         0.0000  0.0000  0.0288  0.0006  0.0000
                                         0.0000  0.0000  0.1243 -0.0003  0.0002
                                         0.0000  0.0000 -0.0158  0.0002 -0.0001
                                         0.0000  0.0000  0.9915 -0.0041  0.0019
                                         0.0001  0.0022 -0.0079  0.0170 -0.0008
                                         0.0018
  42. (1.99682) LP ( 3)Cl 13            s(  0.32%)p99.99( 99.64%)d 0.12(  0.04%)
                                         0.0000  0.0000  0.0566 -0.0035  0.0001
                                         0.0000  0.0000 -0.9152  0.0022 -0.0015
                                         0.0001  0.0000 -0.3839  0.0005 -0.0012
                                         0.0000  0.0000  0.1069 -0.0009  0.0003
                                         0.0000 -0.0128 -0.0019  0.0015  0.0143
                                        -0.0008
  43. (1.81594) LP ( 4)Cl 13            s( 13.23%)p 6.55( 86.61%)d 0.01(  0.16%)
                                         0.0000  0.0000  0.3627 -0.0272  0.0003
                                         0.0000  0.0000 -0.3358 -0.0019  0.0021
                                         0.0001  0.0000  0.8667  0.0066 -0.0053
                                         0.0000  0.0000  0.0454  0.0001 -0.0003
                                         0.0000 -0.0242 -0.0014  0.0031 -0.0244
                                        -0.0198
  44. (1.99942) LP ( 1)Cl 14            s( 86.44%)p 0.16( 13.56%)d 0.00(  0.00%)
                                         0.0000  0.0000  0.9297  0.0098 -0.0001
                                         0.0000  0.0000  0.1831  0.0006  0.0013
                                         0.0000  0.0000  0.3148  0.0015  0.0024
                                         0.0000  0.0000  0.0550 -0.0002  0.0002
                                         0.0000 -0.0025 -0.0004 -0.0009  0.0007
                                         0.0012
  45. (1.99915) LP ( 2)Cl 14            s(  0.08%)p99.99( 99.88%)d 0.43(  0.04%)
                                         0.0000  0.0000  0.0288  0.0006  0.0000
                                         0.0000  0.0000  0.1243 -0.0003  0.0002
                                         0.0000  0.0000  0.0158 -0.0002  0.0001
                                         0.0000  0.0000 -0.9915  0.0041 -0.0019
                                        -0.0001 -0.0022  0.0079  0.0170 -0.0008
                                         0.0018
  46. (1.99682) LP ( 3)Cl 14            s(  0.32%)p99.99( 99.64%)d 0.12(  0.04%)
                                         0.0000  0.0000  0.0566 -0.0035  0.0001
                                         0.0000  0.0000 -0.9152  0.0022 -0.0015
                                         0.0001  0.0000  0.3839 -0.0005  0.0012
                                         0.0000  0.0000 -0.1069  0.0009 -0.0003
                                         0.0000  0.0128  0.0019  0.0015  0.0143
                                        -0.0008
  47. (1.81594) LP ( 4)Cl 14            s( 13.23%)p 6.55( 86.61%)d 0.01(  0.16%)
                                         0.0000  0.0000  0.3627 -0.0272  0.0003
                                         0.0000  0.0000 -0.3357 -0.0019  0.0021
                                         0.0001  0.0000 -0.8668 -0.0066  0.0053
                                         0.0000  0.0000 -0.0454 -0.0001  0.0003
                                         0.0000  0.0242  0.0014  0.0031 -0.0245
                                        -0.0198
  48. (1.97610) BD ( 1) C  1- C  2
               ( 49.22%)   0.7016* C  1 s( 38.99%)p 1.56( 60.94%)d 0.00(  0.07%)
                                         0.0000  0.6244  0.0053  0.0004 -0.7789
                                         0.0027  0.0047 -0.0309 -0.0404  0.0008
[...]
                                                     184(r)
   41. LP ( 2)Cl 13             1.99915    -0.37831  182(r),184(r)
   42. LP ( 3)Cl 13             1.99682    -0.37958  66(r),183(r),186(r),63(r)
                                                     181(r),142(r),75(r)
   43. LP ( 4)Cl 13             1.81594    -0.45187  62(r),188(r),185(r),196(r)
                                                     180(r),183(r),202(r),228(r)
                                                     212(g),142(r),201(r),229(r)
                                                     213(g),203(r),184(r),214(g)
                                                     230(r),198(r),193(r),231(r)
                                                     200(r),161(r),130(r),155(r)
                                                     204(r),209(r),143(r),210(r)
                                                     63(r),135(r),206(r),83(r)
                                                     190(r),234(r)
 ------ non-Lewis ----------------------------------
  211. RY ( 1)Cl 13             0.00217     0.67772
  212. RY ( 2)Cl 13             0.00083     1.05652
  213. RY ( 3)Cl 13             0.00052     0.84187
  214. RY ( 4)Cl 13             0.00049     0.83330
  215. RY ( 5)Cl 13             0.00009     0.79631
  216. RY ( 6)Cl 13             0.00006     0.76066
  217. RY ( 7)Cl 13             0.00002     0.98223
  218. RY ( 8)Cl 13             0.00001     1.03708
  219. RY ( 9)Cl 13             0.00000     2.48586
  220. RY (10)Cl 13             0.00000    28.47744
  221. RY (11)Cl 13             0.00000    14.79830
  222. RY (12)Cl 13             0.00000     9.14476
  223. RY (13)Cl 13             0.00000    24.86797
  224. RY (14)Cl 13             0.00000     5.27203
  225. RY (15)Cl 13             0.00000    23.65451
  226. RY (16)Cl 13             0.00000   199.05870
  227. RY (17)Cl 13             0.00000     1.74897
          -------------------------------
                 Total Lewis   17.81132  ( 99.9765%)
           Valence non-Lewis    0.00000  (  0.0000%)
           Rydberg non-Lewis    0.00418  (  0.0235%)
          -------------------------------
               Total unit  3   17.81551  (100.0000%)
              Charge unit  3   -0.81551

 Molecular unit  4  (Cl)
 ------ Lewis --------------------------------------
   26. CR ( 1)Cl 14             2.00000  -101.51771
   27. CR ( 2)Cl 14             1.99999    -9.68392  62(r)
   28. CR ( 3)Cl 14             2.00000    -7.28125
   29. CR ( 4)Cl 14             2.00000    -7.28454
   30. CR ( 5)Cl 14             2.00000    -7.28070
   44. LP ( 1)Cl 14             1.99942    -0.77776  62(r),185(r),188(r),196(r)
                                                     202(r),183(r),181(r),201(r)
                                                     184(r)
   45. LP ( 2)Cl 14             1.99915    -0.37831  182(r),184(r)
   46. LP ( 3)Cl 14             1.99682    -0.37958  76(r),183(r),186(r),72(r)
                                                     181(r),142(r),64(r)
   47. LP ( 4)Cl 14             1.81594    -0.45187  62(r),188(r),185(r),196(r)
                                                     180(r),183(r),202(r),211(r)
                                                     229(g),142(r),201(r),212(r)
                                                     230(g),203(r),184(r),231(g)
                                                     213(r),198(r),193(r),214(r)
                                                     200(r),155(r),78(r),161(r)
                                                     204(r),209(r),143(r),210(r)
                                                     72(r),83(r),206(r),135(r)
                                                     190(r),217(r)
 ------ non-Lewis ----------------------------------
  228. RY ( 1)Cl 14             0.00217     0.67771
  229. RY ( 2)Cl 14             0.00083     1.05663
  230. RY ( 3)Cl 14             0.00052     0.84166
  231. RY ( 4)Cl 14             0.00049     0.83342
  232. RY ( 5)Cl 14             0.00009     0.79627
  233. RY ( 6)Cl 14             0.00006     0.76070
  234. RY ( 7)Cl 14             0.00002     0.98221
  235. RY ( 8)Cl 14             0.00001     1.03711
  236. RY ( 9)Cl 14             0.00000     2.48572
  237. RY (10)Cl 14             0.00000    28.46763
  238. RY (11)Cl 14             0.00000    14.79964
  239. RY (12)Cl 14             0.00000     9.15097
  240. RY (13)Cl 14             0.00000    24.87348
  241. RY (14)Cl 14             0.00000     5.27054
  242. RY (15)Cl 14             0.00000    23.66179
  243. RY (16)Cl 14             0.00000   199.05101
  244. RY (17)Cl 14             0.00000     1.74778
          -------------------------------
                 Total Lewis   17.81133  ( 99.9765%)
           Valence non-Lewis    0.00000  (  0.0000%)
           Rydberg non-Lewis    0.00418  (  0.0235%)
          -------------------------------
               Total unit  4   17.81551  (100.0000%)
              Charge unit  4   -0.81551

 $CHOOSE
   LONE 6 1 11 3 12 5 13 4 14 4 END
   BOND S 1 2 D 1 6 S 1 7 D 2 3 S 2 8 S 3 4 S 3 11 D 4 5 S 4 9 S 5 6 S 5 10 END
 $END


 Checkpoint NBOs sorted by occupancy:

  Sort    Occ       Energy   Orig   Label
 -----------------------------------------------------------
    1.  2.00000  -101.57127    7.   CR ( 1)Cl 11
    2.  2.00000    -7.37856    9.   CR ( 3)Cl 11
    3.  2.00000    -7.36807   10.   CR ( 4)Cl 11
    4.  2.00000    -7.36872   11.   CR ( 5)Cl 11
    5.  2.00000  -347.31198   12.   CR ( 1)Zn 12
    6.  2.00000   -41.82169   13.   CR ( 2)Zn 12
    7.  2.00000   -37.24442   15.   CR ( 4)Zn 12
    8.  2.00000   -37.24486   17.   CR ( 6)Zn 12
    9.  2.00000   -37.24815   19.   CR ( 8)Zn 12
   10.  2.00000  -101.51771   21.   CR ( 1)Cl 13
   11.  2.00000    -7.28125   23.   CR ( 3)Cl 13
   12.  2.00000    -7.28454   24.   CR ( 4)Cl 13
   13.  2.00000    -7.28070   25.   CR ( 5)Cl 13
   14.  2.00000  -101.51771   26.   CR ( 1)Cl 14
   15.  2.00000    -7.28125   28.   CR ( 3)Cl 14
   16.  2.00000    -7.28454   29.   CR ( 4)Cl 14
   17.  2.00000    -7.28070   30.   CR ( 5)Cl 14
   18.  2.00000    -5.67691   14.   CR ( 3)Zn 12
   19.  1.99999    -3.43273   20.   CR ( 9)Zn 12
   20.  1.99999    -9.68391   22.   CR ( 2)Cl 13
   21.  1.99999    -9.68392   27.   CR ( 2)Cl 14
   22.  1.99999   -10.37541    1.   CR ( 1) C  1
   23.  1.99999   -10.34098    2.   CR ( 1) C  2
   24.  1.99999   -10.40812    3.   CR ( 1) C  3
   25.  1.99999   -14.51016    6.   CR ( 1) N  6
   26.  1.99999   -10.34098    4.   CR ( 1) C  4
   27.  1.99999   -10.37541    5.   CR ( 1) C  5
   28.  1.99999    -9.81827    8.   CR ( 2)Cl 11
   29.  1.99999    -3.42738   16.   CR ( 5)Zn 12
   30.  1.99998    -3.42949   18.   CR ( 7)Zn 12
   31.  1.99942    -0.77776   40.   LP ( 1)Cl 13
   32.  1.99942    -0.77776   44.   LP ( 1)Cl 14
   33.  1.99930    -0.61092   35.   LP ( 1)Zn 12
   34.  1.99915    -0.37831   41.   LP ( 2)Cl 13
   35.  1.99915    -0.37831   45.   LP ( 2)Cl 14
   36.  1.99911    -0.61330   36.   LP ( 2)Zn 12
   37.  1.99726    -0.60774   37.   LP ( 3)Zn 12
   38.  1.99682    -0.37958   42.   LP ( 3)Cl 13
   39.  1.99682    -0.37958   46.   LP ( 3)Cl 14
   40.  1.99674    -0.61051   38.   LP ( 4)Zn 12
   41.  1.99296    -0.60700   39.   LP ( 5)Zn 12
   42.  1.99240    -0.80503   32.   LP ( 1)Cl 11
   43.  1.98826    -0.87281   49.   BD ( 1) C  1- N  6
   44.  1.98826    -0.87281   60.   BD ( 1) C  5- N  6
   45.  1.98700    -0.76149   56.   BD ( 1) C  3-Cl 11
   46.  1.98082    -0.76601   52.   BD ( 1) C  2- C  3
   47.  1.98082    -0.76601   55.   BD ( 1) C  3- C  4
   48.  1.97992    -0.62130   51.   BD ( 1) C  1- H  7
   49.  1.97992    -0.62130   61.   BD ( 1) C  5- H 10
   50.  1.97697    -0.61248   54.   BD ( 1) C  2- H  8
   51.  1.97697    -0.61248   59.   BD ( 1) C  4- H  9
   52.  1.97610    -0.75176   48.   BD ( 1) C  1- C  2
   53.  1.97610    -0.75176   57.   BD ( 1) C  4- C  5
   54.  1.96781    -0.42962   33.   LP ( 2)Cl 11
   55.  1.90675    -0.42369   34.   LP ( 3)Cl 11
   56.  1.86993    -0.50141   31.   LP ( 1) N  6
   57.  1.81594    -0.45187   47.   LP ( 4)Cl 14
   58.  1.81594    -0.45187   43.   LP ( 4)Cl 13
   59.  1.77055    -0.43868   50.   BD ( 2) C  1- N  6
   60.  1.62646    -0.36857   53.   BD ( 2) C  2- C  3
   61.  1.62180    -0.35699   58.   BD ( 2) C  4- C  5
   62.  0.44369    -0.01519   65.   BD*( 2) C  1- N  6
   63.  0.43668    -0.00890   62.   LV ( 1)Zn 12
   64.  0.35963     0.02226   68.   BD*( 2) C  2- C  3
   65.  0.25684     0.04423   73.   BD*( 2) C  4- C  5
   66.  0.03151     0.20029   71.   BD*( 1) C  3-Cl 11
   67.  0.02869     0.60209   67.   BD*( 1) C  2- C  3
   68.  0.02869     0.60209   70.   BD*( 1) C  3- C  4
   69.  0.02170     0.61231   72.   BD*( 1) C  4- C  5
   70.  0.02170     0.61231   63.   BD*( 1) C  1- C  2
   71.  0.01865     0.55566   64.   BD*( 1) C  1- N  6
   72.  0.01865     0.55566   75.   BD*( 1) C  5- N  6
   73.  0.01796     0.49382   76.   BD*( 1) C  5- H 10
   74.  0.01796     0.49382   66.   BD*( 1) C  1- H  7
   75.  0.01240     0.49608   69.   BD*( 1) C  2- H  8
   76.  0.01240     0.49608   74.   BD*( 1) C  4- H  9
   77.  0.00788     1.18799   77.   RY ( 1) C  1
   78.  0.00788     1.18797  129.   RY ( 1) C  5
   79.  0.00719     0.97637  103.   RY ( 1) C  3
   80.  0.00716     1.61213  180.   RY ( 1)Zn 12
   81.  0.00656     1.12722  104.   RY ( 2) C  3
   82.  0.00594     0.94676  142.   RY ( 1) N  6
   83.  0.00556     1.24243   90.   RY ( 1) C  2
   84.  0.00556     1.24243  116.   RY ( 1) C  4
   85.  0.00431     1.19960   78.   RY ( 2) C  1
   86.  0.00431     1.19950  130.   RY ( 2) C  5
   87.  0.00413     1.09391  143.   RY ( 2) N  6
   88.  0.00345     0.58348  163.   RY ( 1)Cl 11
   89.  0.00306     1.12748  105.   RY ( 3) C  3
   90.  0.00289     1.81657  181.   RY ( 2)Zn 12
   91.  0.00274     0.56429  164.   RY ( 2)Cl 11
   92.  0.00246     1.00745   79.   RY ( 3) C  1
   93.  0.00217     0.67772  211.   RY ( 1)Cl 13
   94.  0.00217     0.67771  228.   RY ( 1)Cl 14
   95.  0.00181     0.99915  131.   RY ( 3) C  5
   96.  0.00157     0.82439  144.   RY ( 3) N  6
   97.  0.00154     0.43510  157.   RY ( 1) H  8
   98.  0.00154     0.43510  159.   RY ( 1) H  9
   99.  0.00145     1.10852   91.   RY ( 2) C  2
  100.  0.00145     1.10854  117.   RY ( 2) C  4
  101.  0.00133     0.64974   92.   RY ( 3) C  2
  102.  0.00124     1.32251   93.   RY ( 4) C  2
  103.  0.00124     1.32244  118.   RY ( 3) C  4
  104.  0.00115     0.63624  119.   RY ( 4) C  4
  105.  0.00101     0.43373  155.   RY ( 1) H  7
  106.  0.00101     0.43374  161.   RY ( 1) H 10
  107.  0.00083     1.05652  212.   RY ( 2)Cl 13
  108.  0.00083     1.05663  229.   RY ( 2)Cl 14
  109.  0.00080     1.03265  106.   RY ( 4) C  3
  110.  0.00073     1.68890  107.   RY ( 5) C  3
  111.  0.00070     1.48001  182.   RY ( 3)Zn 12
  112.  0.00059     0.71117  165.   RY ( 3)Cl 11
  113.  0.00056     1.28263  132.   RY ( 4) C  5
  114.  0.00055     2.10317  183.   RY ( 4)Zn 12
  115.  0.00054     1.32051   80.   RY ( 4) C  1
  116.  0.00053     1.31889  133.   RY ( 5) C  5
  117.  0.00052     0.84187  213.   RY ( 3)Cl 13
  118.  0.00052     0.84166  230.   RY ( 3)Cl 14
  119.  0.00051     1.26750   81.   RY ( 5) C  1
  120.  0.00049     0.83330  214.   RY ( 4)Cl 13
  121.  0.00049     0.83342  231.   RY ( 4)Cl 14
  122.  0.00048     2.65931  108.   RY ( 6) C  3
  123.  0.00047     2.29507  145.   RY ( 4) N  6
  124.  0.00046     1.70847  184.   RY ( 5)Zn 12
  125.  0.00041     4.47473  185.   RY ( 6)Zn 12
  126.  0.00036     1.83184  186.   RY ( 7)Zn 12
  127.  0.00026     3.00219   82.   RY ( 6) C  1
  128.  0.00026     3.00155  134.   RY ( 6) C  5
  129.  0.00023     3.09069   94.   RY ( 5) C  2
  130.  0.00023     2.97033  120.   RY ( 5) C  4
  131.  0.00023     1.68457  121.   RY ( 6) C  4
  132.  0.00021     1.54815   95.   RY ( 6) C  2
  133.  0.00021     2.09221   83.   RY ( 7) C  1
  134.  0.00021     2.09280  135.   RY ( 7) C  5
  135.  0.00020     2.52226  146.   RY ( 5) N  6
  136.  0.00018     2.85789  147.   RY ( 6) N  6
  137.  0.00017     2.31646  156.   RY ( 2) H  7
  138.  0.00017     2.31647  162.   RY ( 2) H 10
  139.  0.00017     4.29548  109.   RY ( 7) C  3
  140.  0.00015     2.04432  148.   RY ( 7) N  6
  141.  0.00014     2.93509   96.   RY ( 7) C  2
  142.  0.00014     2.93506  122.   RY ( 7) C  4
  143.  0.00011     2.46930   84.   RY ( 8) C  1
  144.  0.00011     2.46927  136.   RY ( 8) C  5
  145.  0.00011     2.33126  158.   RY ( 2) H  8
  146.  0.00011     2.33127  160.   RY ( 2) H  9
  147.  0.00009     0.79631  215.   RY ( 5)Cl 13
  148.  0.00009     0.79627  232.   RY ( 5)Cl 14
  149.  0.00009     1.77127  187.   RY ( 8)Zn 12
  150.  0.00008     3.16945  110.   RY ( 8) C  3
  151.  0.00008     1.53866   97.   RY ( 8) C  2
  152.  0.00008     1.51891  123.   RY ( 8) C  4
  153.  0.00008     2.17064   98.   RY ( 9) C  2
  154.  0.00008     2.18978  124.   RY ( 9) C  4
  155.  0.00006     0.76066  216.   RY ( 6)Cl 13
  156.  0.00006     0.76070  233.   RY ( 6)Cl 14
  157.  0.00006     3.54634  149.   RY ( 8) N  6
  158.  0.00005     0.93309  166.   RY ( 4)Cl 11
  159.  0.00004     4.84749  150.   RY ( 9) N  6
  160.  0.00003     2.92947   85.   RY ( 9) C  1
  161.  0.00003     2.92936  137.   RY ( 9) C  5
  162.  0.00003     3.48646  111.   RY ( 9) C  3
  163.  0.00003     2.41617   99.   RY (10) C  2
  164.  0.00003     2.41651  125.   RY (10) C  4
  165.  0.00002     0.93109  167.   RY ( 5)Cl 11
  166.  0.00002     5.38843  168.   RY ( 6)Cl 11
  167.  0.00002     1.02151  112.   RY (10) C  3
  168.  0.00002     0.98223  217.   RY ( 7)Cl 13
  169.  0.00002     0.98221  234.   RY ( 7)Cl 14
  170.  0.00002     2.06561   86.   RY (10) C  1
  171.  0.00002     2.07030  138.   RY (10) C  5
  172.  0.00002     1.74965   87.   RY (11) C  1
  173.  0.00002     1.74405  139.   RY (11) C  5
  174.  0.00002     1.43783  169.   RY ( 7)Cl 11
  175.  0.00002     5.39547  188.   RY ( 9)Zn 12
  176.  0.00001     5.57638  100.   RY (11) C  2
  177.  0.00001     5.57634  126.   RY (11) C  4
  178.  0.00001     2.07855  151.   RY (10) N  6
  179.  0.00001     1.80270  170.   RY ( 8)Cl 11
  180.  0.00001     4.15969  152.   RY (11) N  6
  181.  0.00001     3.02652  113.   RY (11) C  3
  182.  0.00001     0.79968  171.   RY ( 9)Cl 11
  183.  0.00001     1.03708  218.   RY ( 8)Cl 13
  184.  0.00001     1.03711  235.   RY ( 8)Cl 14
  185.  0.00000     4.35513  189.   RY (10)Zn 12
  186.  0.00000    19.32427  101.   RY (12) C  2
  187.  0.00000    19.32407  127.   RY (12) C  4
  188.  0.00000     8.62647   88.   RY (12) C  1
  189.  0.00000    15.69427   89.   RY (13) C  1
  190.  0.00000    19.45106  114.   RY (12) C  3
  191.  0.00000     8.60704  140.   RY (12) C  5
  192.  0.00000    15.71404  141.   RY (13) C  5
  193.  0.00000     2.78605  102.   RY (13) C  2
  194.  0.00000     2.70913  115.   RY (13) C  3
  195.  0.00000     2.78606  128.   RY (13) C  4
  196.  0.00000    34.28457  153.   RY (12) N  6
  197.  0.00000     3.80416  154.   RY (13) N  6
  198.  0.00000     2.50243  172.   RY (10)Cl 11
  199.  0.00000     2.31978  190.   RY (11)Zn 12
  200.  0.00000     2.48586  219.   RY ( 9)Cl 13
  201.  0.00000     2.48572  236.   RY ( 9)Cl 14
  202.  0.00000    25.07501  173.   RY (11)Cl 11
  203.  0.00000     4.74590  174.   RY (12)Cl 11
  204.  0.00000     2.20618  175.   RY (13)Cl 11
  205.  0.00000    25.49907  176.   RY (14)Cl 11
  206.  0.00000    14.55452  177.   RY (15)Cl 11
  207.  0.00000    24.22373  178.   RY (16)Cl 11
  208.  0.00000   205.37275  179.   RY (17)Cl 11
  209.  0.00000    13.47849  191.   RY (12)Zn 12
  210.  0.00000    33.83060  192.   RY (13)Zn 12
  211.  0.00000   466.77669  193.   RY (14)Zn 12
  212.  0.00000    23.48876  194.   RY (15)Zn 12
  213.  0.00000    25.00378  195.   RY (16)Zn 12
  214.  0.00000    73.85603  196.   RY (17)Zn 12
  215.  0.00000     8.76174  197.   RY (18)Zn 12
  216.  0.00000     6.25909  198.   RY (19)Zn 12
  217.  0.00000     9.35710  199.   RY (20)Zn 12
  218.  0.00000    38.60242  200.   RY (21)Zn 12
  219.  0.00000    55.15520  201.   RY (22)Zn 12
  220.  0.00000   602.58586  202.   RY (23)Zn 12
  221.  0.00000     7.86450  203.   RY (24)Zn 12
  222.  0.00000     8.38683  204.   RY (25)Zn 12
  223.  0.00000     8.04867  205.   RY (26)Zn 12
  224.  0.00000    10.26928  206.   RY (27)Zn 12
  225.  0.00000     5.24395  207.   RY (28)Zn 12
  226.  0.00000     9.89247  208.   RY (29)Zn 12
  227.  0.00000     7.94471  209.   RY (30)Zn 12
  228.  0.00000     7.40025  210.   RY (31)Zn 12
  229.  0.00000    28.47744  220.   RY (10)Cl 13
  230.  0.00000    14.79830  221.   RY (11)Cl 13
  231.  0.00000     9.14476  222.   RY (12)Cl 13
  232.  0.00000    24.86797  223.   RY (13)Cl 13
  233.  0.00000     5.27203  224.   RY (14)Cl 13
  234.  0.00000    23.65451  225.   RY (15)Cl 13
  235.  0.00000   199.05870  226.   RY (16)Cl 13
  236.  0.00000     1.74897  227.   RY (17)Cl 13
  237.  0.00000    28.46763  237.   RY (10)Cl 14
  238.  0.00000    14.79964  238.   RY (11)Cl 14
  239.  0.00000     9.15097  239.   RY (12)Cl 14
  240.  0.00000    24.87348  240.   RY (13)Cl 14
  241.  0.00000     5.27054  241.   RY (14)Cl 14
  242.  0.00000    23.66179  242.   RY (15)Cl 14
  243.  0.00000   199.05101  243.   RY (16)Cl 14
  244.  0.00000     1.74778  244.   RY (17)Cl 14

 NBO analysis completed in 1.23 CPU seconds (1 wall second)
 Maximum scratch memory used by NBO was 1159928 words (8.85 MB)
 Maximum scratch memory used by G16NBO was 99487 words (0.76 MB)

 Opening RunExU unformatted file "/gpfs/summit/scratch/lilianac@colostate.edu/10460574/Gau-166376.EUF"
 Read unf file /gpfs/summit/scratch/lilianac@colostate.edu/10460574/Gau-166376.EUF:
 Label Gaussian matrix elements                                         IVers= 2 NLab= 2 Version=ES64L-G16RevC.01
 Title ar06_Cl_NBO                                                     
 NAtoms=    14 NBasis=   244 NBsUse=   244 ICharg=     0 Multip=     1 NE=   122 Len12L=8 Len4L=8 IOpCl= 0 ICGU=111
 GAUSSIAN SCALARS                    NI= 1 NR= 1 NTot=       1 LenBuf=    2 NRI=1 N=    1000
 ALPHA ORBITAL ENERGIES              NI= 0 NR= 1 NTot=     244 LenBuf= 2048 NRI=1 N=     244
 ALPHA MO COEFFICIENTS               NI= 0 NR= 1 NTot=   59536 LenBuf= 2048 NRI=1 N=     244     244
 Store file  10524 Len=   59536.
 NPA CHARGES                         NI= 0 NR= 1 NTot=      14 LenBuf= 2048 NRI=1 N=      14
 Recovered energy= -3407.74554822     dipole=     -3.856692283704     -0.000151146925      0.000076549603
 Unable to Open any file for archive entry.
 1\1\GINC-SSKY0951\SP\RwB97XD\6-311G(d)\C5H4Cl3N1Zn1\LILIANAC@COLOSTATE
 .EDU\04-May-2022\0\\# wb97xd/6-311g(d) pop=(nbo6read,savenbos) scrf=(s
 olvent=toluene,smd)\\ar06_Cl_NBO\\0,1\C,0,0.899369,1.142782,0.158198\C
 ,0,2.279699,1.190672,0.167956\C,0,2.972209,0.000022,0.000002\C,0,2.279
 648,-1.190602,-0.167926\C,0,0.899322,-1.142654,-0.158133\N,0,0.217268,
 0.000077,0.000045\H,0,0.311998,2.046088,0.279644\H,0,2.793923,2.132938
 ,0.302386\H,0,2.79383,-2.13289,-0.302372\H,0,0.311911,-2.045937,-0.279
 559\Cl,0,4.704405,-0.000012,-0.000034\Zn,0,-1.81415,-0.000001,0.000009
 \Cl,0,-2.625527,2.044697,-0.100743\Cl,0,-2.625321,-2.044802,0.100702\\
 Version=ES64L-G16RevC.01\State=1-A\HF=-3407.7455482\RMSD=7.833e-09\Dip
 ole=3.8566923,0.0001513,0.0000765\Quadrupole=-6.7823944,-1.2164544,7.9
 988488,0.0005591,-0.0003033,2.3214127\PG=C01 [X(C5H4Cl3N1Zn1)]\\@
 The archive entry for this job was punched.


 I LOVE THOSE WHO LONG FOR THE IMPOSSIBLE.

                                 -- GOETHE
 Job cpu time:       0 days  0 hours  3 minutes 25.5 seconds.
 Elapsed time:       0 days  0 hours  0 minutes 59.6 seconds.
 File lengths (MBytes):  RWF=    192 Int=      0 D2E=      0 Chk=     16 Scr=     16
 Normal termination of Gaussian 16 at Wed May  4 21:42:10 2022.
