Job Start Time: Wed May  4 21:37:57 MDT 2022
SLURM Job ID: 10460510
SLURM Job Name: am07_NBO
 Entering Gaussian System, Link 0=/projects/rpaton@colostate.edu/g16/g16
 Initial command:
 /projects/rpaton@colostate.edu/g16/l1.exe "/gpfs/summit/scratch/lilianac@colostate.edu/10460510/Gau-156599.inp" -scrdir="/gpfs/summit/scratch/lilianac@colostate.edu/10460510/"
 Entering Link 1 = /projects/rpaton@colostate.edu/g16/l1.exe PID=    156621.
  
 Copyright (c) 1988-2019, Gaussian, Inc.  All Rights Reserved.
  
 This is part of the Gaussian(R) 16 program.  It is based on
 the Gaussian(R) 09 system (copyright 2009, Gaussian, Inc.),
 the Gaussian(R) 03 system (copyright 2003, Gaussian, Inc.),
 the Gaussian(R) 98 system (copyright 1998, Gaussian, Inc.),
 the Gaussian(R) 94 system (copyright 1995, Gaussian, Inc.),
 the Gaussian 92(TM) system (copyright 1992, Gaussian, Inc.),
 the Gaussian 90(TM) system (copyright 1990, Gaussian, Inc.),
 the Gaussian 88(TM) system (copyright 1988, Gaussian, Inc.),
 the Gaussian 86(TM) system (copyright 1986, Carnegie Mellon
 University), and the Gaussian 82(TM) system (copyright 1983,
 Carnegie Mellon University). Gaussian is a federally registered
 trademark of Gaussian, Inc.
  
 This software contains proprietary and confidential information,
 including trade secrets, belonging to Gaussian, Inc.
  
 This software is provided under written license and may be
 used, copied, transmitted, or stored only in accord with that
 written license.
  
 The following legend is applicable only to US Government
 contracts under FAR:
  
                    RESTRICTED RIGHTS LEGEND
  
 Use, reproduction and disclosure by the US Government is
 subject to restrictions as set forth in subparagraphs (a)
 and (c) of the Commercial Computer Software - Restricted
 Rights clause in FAR 52.227-19.
  
 Gaussian, Inc.
 340 Quinnipiac St., Bldg. 40, Wallingford CT 06492
  
  
 ---------------------------------------------------------------
 Warning -- This program may not be used in any manner that
 competes with the business of Gaussian, Inc. or will provide
 assistance to any competitor of Gaussian, Inc.  The licensee
 of this program is prohibited from giving any competitor of
 Gaussian, Inc. access to this program.  By using this program,
 the user acknowledges that Gaussian, Inc. is engaged in the
 business of creating and licensing software in the field of
 computational chemistry and represents and warrants to the
 licensee that it is not a competitor of Gaussian, Inc. and that
 it will not use this program in any manner prohibited above.
 ---------------------------------------------------------------
  

 Cite this work as:
 Gaussian 16, Revision C.01,
 M. J. Frisch, G. W. Trucks, H. B. Schlegel, G. E. Scuseria, 
 M. A. Robb, J. R. Cheeseman, G. Scalmani, V. Barone, 
 G. A. Petersson, H. Nakatsuji, X. Li, M. Caricato, A. V. Marenich, 
 J. Bloino, B. G. Janesko, R. Gomperts, B. Mennucci, H. P. Hratchian, 
 J. V. Ortiz, A. F. Izmaylov, J. L. Sonnenberg, D. Williams-Young, 
 F. Ding, F. Lipparini, F. Egidi, J. Goings, B. Peng, A. Petrone, 
 T. Henderson, D. Ranasinghe, V. G. Zakrzewski, J. Gao, N. Rega, 
 G. Zheng, W. Liang, M. Hada, M. Ehara, K. Toyota, R. Fukuda, 
 J. Hasegawa, M. Ishida, T. Nakajima, Y. Honda, O. Kitao, H. Nakai, 
 T. Vreven, K. Throssell, J. A. Montgomery, Jr., J. E. Peralta, 
 F. Ogliaro, M. J. Bearpark, J. J. Heyd, E. N. Brothers, K. N. Kudin, 
 V. N. Staroverov, T. A. Keith, R. Kobayashi, J. Normand, 
 K. Raghavachari, A. P. Rendell, J. C. Burant, S. S. Iyengar, 
 J. Tomasi, M. Cossi, J. M. Millam, M. Klene, C. Adamo, R. Cammi, 
 J. W. Ochterski, R. L. Martin, K. Morokuma, O. Farkas, 
 J. B. Foresman, and D. J. Fox, Gaussian, Inc., Wallingford CT, 2019.
 
 ******************************************
 Gaussian 16:  ES64L-G16RevC.01  3-Jul-2019
                 4-May-2022 
 ******************************************
 %chk=am07_NBO.chk
 %mem=8GB
 %nprocshared=4
 Will use up to    4 processors via shared memory.
 ---------------------------------------------------------------------
 # wb97xd/6-311g(d) pop=(nbo6read,savenbos) scrf=(solvent=toluene,smd)
 ---------------------------------------------------------------------
 1/38=1,163=2,172=1/1;
 2/12=2,17=6,18=5,40=1/2;
 3/5=4,6=6,7=1,11=2,25=1,30=1,70=32201,72=13,74=-58/1,2,3;
 4//1;
 5/5=2,38=5,53=13/2;
 6/7=2,8=2,9=2,10=2,28=1,40=2,73=1,113=1,114=1,124=2103,126=1/1,12;
 99/5=1,9=1/99;
 --------
 am07_NBO
 --------
 Symbolic Z-matrix:
 Charge =  0 Multiplicity = 1
 N                     1.75779  -0.60989   0.06596 
 C                     0.43787  -0.28221   0.0267 
 C                    -0.01309   1.04777   0.02429 
 C                    -1.37692   1.29271   0.00381 
 C                    -1.88376  -0.91042  -0.01964 
 C                    -0.55461  -1.27993   0.00205 
 H                     0.67964   1.8805    0.03874 
 H                    -1.73015   2.32162   0.00303 
 H                    -2.65247  -1.67957  -0.03944 
 H                    -0.28022  -2.33054   0.00247 
 H                     1.99253  -1.57657  -0.07853 
 C                     2.82201   0.35776  -0.04553 
 H                     3.776    -0.16821  -0.01597 
 H                     2.77267   0.92795  -0.98169 
 H                     2.8053    1.06414   0.7904 
 N                    -2.3224    0.3537   -0.01869 
 
                          Input orientation:                          
 ---------------------------------------------------------------------
 Center     Atomic      Atomic             Coordinates (Angstroms)
 Number     Number       Type             X           Y           Z
 ---------------------------------------------------------------------
      1          7           0        1.757791   -0.609892    0.065956
      2          6           0        0.437869   -0.282213    0.026696
      3          6           0       -0.013089    1.047766    0.024290
      4          6           0       -1.376923    1.292706    0.003811
      5          6           0       -1.883764   -0.910420   -0.019635
      6          6           0       -0.554611   -1.279934    0.002050
      7          1           0        0.679644    1.880496    0.038742
      8          1           0       -1.730151    2.321623    0.003034
      9          1           0       -2.652468   -1.679570   -0.039437
     10          1           0       -0.280221   -2.330544    0.002465
     11          1           0        1.992532   -1.576570   -0.078529
     12          6           0        2.822014    0.357764   -0.045528
     13          1           0        3.776003   -0.168213   -0.015967
     14          1           0        2.772669    0.927953   -0.981688
     15          1           0        2.805298    1.064141    0.790402
     16          7           0       -2.322402    0.353702   -0.018689
 ---------------------------------------------------------------------
                    Distance matrix (angstroms):
                    1          2          3          4          5
     1  N    0.000000
     2  C    1.360555   0.000000
     3  C    2.426022   1.404355   0.000000
     4  C    3.667448   2.402991   1.385806   0.000000
     5  C    3.654937   2.405571   2.708477   2.260797   0.000000
     6  C    2.408369   1.407505   2.389964   2.700866   1.379731
     7  H    2.713885   2.176215   1.083295   2.139202   3.789945
     8  H    4.556696   3.388338   2.138099   1.087861   3.235771
     9  H    4.539351   3.392221   3.795885   3.234704   1.087607
    10  H    2.667989   2.170691   3.388925   3.785591   2.142100
    11  H    1.005209   2.025687   3.304577   4.426370   3.933560
    12  C    1.442691   2.469602   2.918696   4.302049   4.873737
    13  H    2.067600   3.340352   3.979629   5.356055   5.708226
    14  H    2.119552   2.816493   2.964253   4.280580   5.097797
    15  H    2.103445   2.828540   2.920702   4.261683   5.151927
    16  N    4.193287   2.832939   2.411742   1.332729   1.338062
                    6          7          8          9         10
     6  C    0.000000
     7  H    3.393088   0.000000
     8  H    3.788550   2.450098   0.000000
     9  H    2.135986   4.876797   4.106339   0.000000
    10  H    1.085851   4.319203   4.872880   2.460301   0.000000
    11  H    2.565623   3.699829   5.390819   4.646306   2.395922
    12  C    3.753121   2.629746   4.957954   5.841294   4.105261
    13  H    4.471070   3.713171   6.042961   6.603786   4.596626
    14  H    4.112578   2.515824   4.815328   6.092547   4.572362
    15  H    4.171951   2.397881   4.771950   6.164722   4.654585
    16  N    2.407131   3.368483   2.055224   2.059992   3.372852
                   11         12         13         14         15
    11  H    0.000000
    12  C    2.104941   0.000000
    13  H    2.273357   1.089780   0.000000
    14  H    2.774337   1.097245   1.772252   0.000000
    15  H    2.896374   1.094544   1.763858   1.777615   0.000000
    16  N    4.727387   5.144488   6.120698   5.216980   5.239529
                   16
    16  N    0.000000
 Stoichiometry    C6H8N2
 Framework group  C1[X(C6H8N2)]
 Deg. of freedom    42
 Full point group                 C1      NOp   1
 Largest Abelian subgroup         C1      NOp   1
 Largest concise Abelian subgroup C1      NOp   1
                         Standard orientation:                         
 ---------------------------------------------------------------------
 Center     Atomic      Atomic             Coordinates (Angstroms)
 Number     Number       Type             X           Y           Z
 ---------------------------------------------------------------------
      1          7           0       -1.757791   -0.609892   -0.065956
      2          6           0       -0.437869   -0.282213   -0.026696
      3          6           0        0.013089    1.047766   -0.024290
      4          6           0        1.376923    1.292706   -0.003811
      5          6           0        1.883764   -0.910420    0.019635
      6          6           0        0.554611   -1.279934   -0.002050
      7          1           0       -0.679644    1.880496   -0.038742
      8          1           0        1.730151    2.321623   -0.003034
      9          1           0        2.652468   -1.679570    0.039437
     10          1           0        0.280221   -2.330544   -0.002465
     11          1           0       -1.992532   -1.576570    0.078529
     12          6           0       -2.822014    0.357764    0.045528
     13          1           0       -3.776003   -0.168213    0.015967
     14          1           0       -2.772669    0.927953    0.981688
     15          1           0       -2.805298    1.064141   -0.790402
     16          7           0        2.322402    0.353702    0.018689
 ---------------------------------------------------------------------
 Rotational constants (GHZ):           5.2762001           1.5236570           1.1918358
 Standard basis: 6-311G(d) (5D, 7F)
 There are   176 symmetry adapted cartesian basis functions of A   symmetry.
 There are   168 symmetry adapted basis functions of A   symmetry.
   168 basis functions,   296 primitive gaussians,   176 cartesian basis functions
    29 alpha electrons       29 beta electrons
       nuclear repulsion energy       347.9830664393 Hartrees.
 NAtoms=   16 NActive=   16 NUniq=   16 SFac= 1.00D+00 NAtFMM=   60 NAOKFM=F Big=F
 Integral buffers will be    131072 words long.
 Raffenetti 2 integral format.
 Two-electron integral symmetry is turned on.
 Nuclear repulsion after empirical dispersion term =      347.9757674815 Hartrees.
 ------------------------------------------------------------------------------
 Polarizable Continuum Model (PCM)
 =================================
 Model                : PCM.
 Atomic radii         : SMD-Coulomb.
 Polarization charges : Total charges.
 Charge compensation  : None.
 Solution method      : On-the-fly selection.
 Cavity type          : VdW (van der Waals Surface) (Alpha=1.000).
 Cavity algorithm     : GePol (No added spheres)
                        Default sphere list used, NSphG=   16.
                        Lebedev-Laikov grids with approx.  5.0 points / Ang**2.
                        Smoothing algorithm: York/Karplus (Gamma=1.0000).
                        Polarization charges: spherical gaussians, with
                                              point-specific exponents (IZeta= 3).
                        Self-potential: point-specific (ISelfS= 7).
                        Self-field    : sphere-specific E.n sum rule (ISelfD= 2).
 Solvent              : Toluene, Eps=   2.374100 Eps(inf)=   2.238315
 ------------------------------------------------------------------------------
 Spheres list:
 ISph  on   Nord     Re0    Alpha      Xe            Ye            Ze
    1   N      1    1.8900  1.000     -1.757791     -0.609892     -0.065956
    2   C      2    1.8500  1.000     -0.437869     -0.282213     -0.026696
    3   C      3    1.8500  1.000      0.013089      1.047766     -0.024290
    4   C      4    1.8500  1.000      1.376923      1.292706     -0.003811
    5   C      5    1.8500  1.000      1.883764     -0.910420      0.019635
    6   C      6    1.8500  1.000      0.554611     -1.279934     -0.002050
    7   H      7    1.2000  1.000     -0.679644      1.880496     -0.038742
    8   H      8    1.2000  1.000      1.730151      2.321623     -0.003034
    9   H      9    1.2000  1.000      2.652468     -1.679570      0.039437
   10   H     10    1.2000  1.000      0.280221     -2.330544     -0.002465
   11   H     11    1.2000  1.000     -1.992532     -1.576570      0.078529
   12   C     12    1.8500  1.000     -2.822014      0.357764      0.045528
   13   H     13    1.2000  1.000     -3.776003     -0.168213      0.015967
   14   H     14    1.2000  1.000     -2.772669      0.927953      0.981688
   15   H     15    1.2000  1.000     -2.805298      1.064141     -0.790402
   16   N     16    1.8900  1.000      2.322402      0.353702      0.018689
 ------------------------------------------------------------------------------
 ------------------------------------------------------------------------------
 Atomic radii for non-electrostatic terms: SMD-CDS.
 ------------------------------------------------------------------------------
 Nuclear repulsion after PCM non-electrostatic terms =      347.9723238357 Hartrees.
 One-electron integrals computed using PRISM.
 NBasis=   168 RedAO= T EigKep=  5.21D-04  NBF=   168
 NBsUse=   168 1.00D-06 EigRej= -1.00D+00 NBFU=   168
 ExpMin= 1.03D-01 ExpMax= 6.29D+03 ExpMxC= 9.49D+02 IAcc=3 IRadAn=         5 AccDes= 0.00D+00
 Harris functional with IExCor= 4639 and IRadAn=       5 diagonalized for initial guess.
 HarFok:  IExCor= 4639 AccDes= 0.00D+00 IRadAn=         5 IDoV= 1 UseB2=F ITyADJ=14
 ICtDFT=  3500011 ScaDFX=  1.000000  1.000000  1.000000  1.000000
 FoFCou: FMM=F IPFlag=           0 FMFlag=      100000 FMFlg1=           0
         NFxFlg=           0 DoJE=T BraDBF=F KetDBF=T FulRan=T
         wScrn=  0.000000 ICntrl=       500 IOpCl=  0 I1Cent=   200000004 NGrid=           0
         NMat0=    1 NMatS0=      1 NMatT0=    0 NMatD0=    1 NMtDS0=    0 NMtDT0=    0
 Petite list used in FoFCou.
 Keep R1 ints in memory in canonical form, NReq=207977740.
 Requested convergence on RMS density matrix=1.00D-08 within 128 cycles.
 Requested convergence on MAX density matrix=1.00D-06.
 Requested convergence on             energy=1.00D-06.
 No special actions if energy rises.
 Inv3:  Mode=1 IEnd=     5148300.
 Iteration    1 A*A^-1 deviation from unit magnitude is 2.66D-15 for    991.
 Iteration    1 A*A^-1 deviation from orthogonality  is 1.98D-15 for   1030    478.
 Iteration    1 A^-1*A deviation from unit magnitude is 2.66D-15 for    991.
 Iteration    1 A^-1*A deviation from orthogonality  is 1.04D-15 for   1305   1275.
 Error on total polarization charges =  0.02266
 SCF Done:  E(RwB97XD) =  -342.915136591     A.U. after   13 cycles
            NFock= 13  Conv=0.60D-08     -V/T= 2.0037
 SMD-CDS (non-electrostatic) energy       (kcal/mol) =      -2.16
 (included in total energy above)

 **********************************************************************

            Population analysis using the SCF Density.

 **********************************************************************

 Orbital symmetries:
       Occupied  (A) (A) (A) (A) (A) (A) (A) (A) (A) (A) (A) (A)
                 (A) (A) (A) (A) (A) (A) (A) (A) (A) (A) (A) (A)
                 (A) (A) (A) (A) (A)
       Virtual   (A) (A) (A) (A) (A) (A) (A) (A) (A) (A) (A) (A)
                 (A) (A) (A) (A) (A) (A) (A) (A) (A) (A) (A) (A)
                 (A) (A) (A) (A) (A) (A) (A) (A) (A) (A) (A) (A)
                 (A) (A) (A) (A) (A) (A) (A) (A) (A) (A) (A) (A)
                 (A) (A) (A) (A) (A) (A) (A) (A) (A) (A) (A) (A)
                 (A) (A) (A) (A) (A) (A) (A) (A) (A) (A) (A) (A)
                 (A) (A) (A) (A) (A) (A) (A) (A) (A) (A) (A) (A)
                 (A) (A) (A) (A) (A) (A) (A) (A) (A) (A) (A) (A)
                 (A) (A) (A) (A) (A) (A) (A) (A) (A) (A) (A) (A)
                 (A) (A) (A) (A) (A) (A) (A) (A) (A) (A) (A) (A)
                 (A) (A) (A) (A) (A) (A) (A) (A) (A) (A) (A) (A)
                 (A) (A) (A) (A) (A) (A) (A)
 The electronic state is 1-A.
 Alpha  occ. eigenvalues --  -14.44825 -14.40434 -10.33988 -10.31225 -10.30885
 Alpha  occ. eigenvalues --  -10.30832 -10.27872 -10.27704  -1.05384  -1.02653
 Alpha  occ. eigenvalues --   -0.88589  -0.85411  -0.79513  -0.72452  -0.69822
 Alpha  occ. eigenvalues --   -0.63539  -0.59303  -0.55487  -0.53852  -0.53245
 Alpha  occ. eigenvalues --   -0.52028  -0.50482  -0.48189  -0.47618  -0.43116
 Alpha  occ. eigenvalues --   -0.40744  -0.33440  -0.33272  -0.28847
 Alpha virt. eigenvalues --    0.06514   0.07189   0.12502   0.14002   0.15182
 Alpha virt. eigenvalues --    0.17932   0.19187   0.20201   0.22048   0.22773
 Alpha virt. eigenvalues --    0.24160   0.26543   0.28332   0.35137   0.36505
 Alpha virt. eigenvalues --    0.37349   0.38377   0.40201   0.43705   0.44776
 Alpha virt. eigenvalues --    0.46785   0.47372   0.47578   0.49890   0.51321
 Alpha virt. eigenvalues --    0.52277   0.52953   0.54336   0.55835   0.58371
 Alpha virt. eigenvalues --    0.60630   0.61362   0.63493   0.63743   0.66244
 Alpha virt. eigenvalues --    0.67836   0.68394   0.70035   0.73653   0.75004
 Alpha virt. eigenvalues --    0.75231   0.76287   0.78119   0.79935   0.80758
 Alpha virt. eigenvalues --    0.85600   0.86302   0.87755   0.89460   0.91464
 Alpha virt. eigenvalues --    0.93962   0.97763   1.04523   1.07104   1.08390
 Alpha virt. eigenvalues --    1.11544   1.14468   1.14777   1.20809   1.28840
 Alpha virt. eigenvalues --    1.29700   1.34123   1.39823   1.40947   1.41970
 Alpha virt. eigenvalues --    1.43338   1.46148   1.55014   1.58414   1.59333
 Alpha virt. eigenvalues --    1.62688   1.64659   1.67463   1.69579   1.77917
 Alpha virt. eigenvalues --    1.82223   1.83151   1.86309   1.87291   1.90808
 Alpha virt. eigenvalues --    1.95952   1.98891   2.01661   2.08052   2.11045
 Alpha virt. eigenvalues --    2.13507   2.25062   2.26951   2.32485   2.34525
 Alpha virt. eigenvalues --    2.37296   2.39990   2.41784   2.43760   2.44089
 Alpha virt. eigenvalues --    2.47116   2.50852   2.61521   2.65527   2.68256
 Alpha virt. eigenvalues --    2.71158   2.73673   2.77805   2.85800   2.89527
 Alpha virt. eigenvalues --    2.90473   2.92342   2.96367   3.00571   3.07806
 Alpha virt. eigenvalues --    3.14989   3.19027   3.26502   3.32580   3.36289
 Alpha virt. eigenvalues --    3.38335   3.39688   3.47200   3.48794   3.55579
 Alpha virt. eigenvalues --    3.60174   3.74227   3.77420   3.91340   3.95874
 Alpha virt. eigenvalues --    3.98763   4.40531   4.47034   4.55912   5.02612
 Alpha virt. eigenvalues --    5.28597  23.54940  23.64255  23.87443  24.08146
 Alpha virt. eigenvalues --   24.20214  24.22264  35.66329  35.77247
          Condensed to atoms (all electrons):
               1          2          3          4          5          6
     1  N    6.910785   0.361344  -0.068910   0.003981   0.003663  -0.048125
     2  C    0.361344   4.580511   0.479127  -0.042537  -0.051979   0.471059
     3  C   -0.068910   0.479127   5.293248   0.496279  -0.023989  -0.052152
     4  C    0.003981  -0.042537   0.496279   4.824164  -0.132561  -0.025362
     5  C    0.003663  -0.051979  -0.023989  -0.132561   4.827547   0.519142
     6  C   -0.048125   0.471059  -0.052152  -0.025362   0.519142   5.243115
     7  H   -0.006063  -0.042102   0.377955  -0.022080  -0.000310   0.005184
     8  H   -0.000119   0.003070  -0.063858   0.410823   0.005191   0.000102
     9  H   -0.000144   0.003978  -0.000040   0.005103   0.407797  -0.060303
    10  H   -0.004041  -0.052840   0.006493  -0.000369  -0.019583   0.381798
    11  H    0.351238  -0.055996   0.004901  -0.000301   0.000518   0.002156
    12  C    0.279195  -0.064198  -0.009601  -0.000568  -0.000240   0.004807
    13  H   -0.019102   0.004095   0.000979   0.000020   0.000009  -0.000293
    14  H   -0.049360   0.000669  -0.000758  -0.000269  -0.000014   0.001023
    15  H   -0.037661  -0.008969   0.003892   0.000123   0.000004  -0.000200
    16  N    0.000184  -0.043950  -0.053350   0.535715   0.521275  -0.049952
               7          8          9         10         11         12
     1  N   -0.006063  -0.000119  -0.000144  -0.004041   0.351238   0.279195
     2  C   -0.042102   0.003070   0.003978  -0.052840  -0.055996  -0.064198
     3  C    0.377955  -0.063858  -0.000040   0.006493   0.004901  -0.009601
     4  C   -0.022080   0.410823   0.005103  -0.000369  -0.000301  -0.000568
     5  C   -0.000310   0.005191   0.407797  -0.019583   0.000518  -0.000240
     6  C    0.005184   0.000102  -0.060303   0.381798   0.002156   0.004807
     7  H    0.444724  -0.002228   0.000063  -0.000062  -0.000209   0.004509
     8  H   -0.002228   0.453998  -0.000414   0.000067   0.000019  -0.000061
     9  H    0.000063  -0.000414   0.454075  -0.003049  -0.000055   0.000011
    10  H   -0.000062   0.000067  -0.003049   0.459216   0.004036  -0.000163
    11  H   -0.000209   0.000019  -0.000055   0.004036   0.354720  -0.035123
    12  C    0.004509  -0.000061   0.000011  -0.000163  -0.035123   5.191662
    13  H    0.000313  -0.000001  -0.000000  -0.000024  -0.007510   0.384431
    14  H   -0.000709   0.000005  -0.000000   0.000027   0.001611   0.393124
    15  H   -0.000911  -0.000008  -0.000000  -0.000032   0.004218   0.387239
    16  N    0.005518  -0.028850  -0.029073   0.005417   0.000024   0.000011
              13         14         15         16
     1  N   -0.019102  -0.049360  -0.037661   0.000184
     2  C    0.004095   0.000669  -0.008969  -0.043950
     3  C    0.000979  -0.000758   0.003892  -0.053350
     4  C    0.000020  -0.000269   0.000123   0.535715
     5  C    0.000009  -0.000014   0.000004   0.521275
     6  C   -0.000293   0.001023  -0.000200  -0.049952
     7  H    0.000313  -0.000709  -0.000911   0.005518
     8  H   -0.000001   0.000005  -0.000008  -0.028850
     9  H   -0.000000  -0.000000  -0.000000  -0.029073
    10  H   -0.000024   0.000027  -0.000032   0.005417
    11  H   -0.007510   0.001611   0.004218   0.000024
    12  C    0.384431   0.393124   0.387239   0.000011
    13  H    0.441415  -0.023629  -0.022677   0.000001
    14  H   -0.023629   0.485438  -0.041857  -0.000024
    15  H   -0.022677  -0.041857   0.476131  -0.000020
    16  N    0.000001  -0.000024  -0.000020   6.490062
 Mulliken charges:
               1
     1  N   -0.676866
     2  C    0.458720
     3  C   -0.390214
     4  C   -0.052160
     5  C   -0.056469
     6  C   -0.391997
     7  H    0.236407
     8  H    0.222264
     9  H    0.222052
    10  H    0.223108
    11  H    0.375752
    12  C   -0.535037
    13  H    0.241973
    14  H    0.234724
    15  H    0.240728
    16  N   -0.352985
 Sum of Mulliken charges =  -0.00000
 Mulliken charges with hydrogens summed into heavy atoms:
               1
     1  N   -0.301114
     2  C    0.458720
     3  C   -0.153807
     4  C    0.170104
     5  C    0.165583
     6  C   -0.168890
    12  C    0.182388
    16  N   -0.352985
 Electronic spatial extent (au):  <R**2>=            984.1490
 Charge=             -0.0000 electrons
 Dipole moment (field-independent basis, Debye):
    X=             -5.2001    Y=             -1.2857    Z=              0.3024  Tot=              5.3652
 Quadrupole moment (field-independent basis, Debye-Ang):
   XX=            -48.0677   YY=            -39.6433   ZZ=            -51.2152
   XY=             -0.8526   XZ=             -0.7281   YZ=             -0.5599
 Traceless Quadrupole moment (field-independent basis, Debye-Ang):
   XX=             -1.7590   YY=              6.6654   ZZ=             -4.9064
   XY=             -0.8526   XZ=             -0.7281   YZ=             -0.5599
 Octapole moment (field-independent basis, Debye-Ang**2):
  XXX=            -55.8249  YYY=             -5.1923  ZZZ=              0.4568  XYY=             -2.8231
  XXY=            -12.8500  XXZ=              1.1445  XZZ=             -3.2606  YZZ=              0.7112
  YYZ=              0.4077  XYZ=              0.8690
 Hexadecapole moment (field-independent basis, Debye-Ang**3):
 XXXX=           -951.9609 YYYY=           -279.1583 ZZZZ=            -61.4858 XXXY=            -13.2633
 XXXZ=             -2.7372 YYYX=             16.5066 YYYZ=             -1.5587 ZZZX=             -0.9183
 ZZZY=             -0.1329 XXYY=           -181.4555 XXZZ=           -174.6369 YYZZ=            -69.2140
 XXYZ=             -2.6450 YYXZ=             -0.5194 ZZXY=             -1.0521
 N-N= 3.479723238357D+02 E-N=-1.493622941235D+03  KE= 3.416364257981D+02
 Running external command "gaunbo6 R"
         input file       "/gpfs/summit/scratch/lilianac@colostate.edu/10460510/Gau-156621.EIn"
         output file      "/gpfs/summit/scratch/lilianac@colostate.edu/10460510/Gau-156621.EOu"
         message file     "/gpfs/summit/scratch/lilianac@colostate.edu/10460510/Gau-156621.EMs"
         fchk file        "/gpfs/summit/scratch/lilianac@colostate.edu/10460510/Gau-156621.EFC"
         mat. el file     "/gpfs/summit/scratch/lilianac@colostate.edu/10460510/Gau-156621.EUF"

 Writing WrtUnf unformatted file "/gpfs/summit/scratch/lilianac@colostate.edu/10460510/Gau-156621.EUF"
 Gaussian matrix elements                                         Version   2 NLab=11 Len12L=8 Len4L=8
 Write SHELL TO ATOM MAP                   from file      0 offset           0 length                  64 to matrix element file.
 Write SHELL TYPES                         from file      0 offset           0 length                  64 to matrix element file.
 Write NUMBER OF PRIMITIVES PER SHELL      from file      0 offset           0 length                  64 to matrix element file.
 Write PRIMITIVE EXPONENTS                 from file      0 offset           0 length                 136 to matrix element file.
 Write CONTRACTION COEFFICIENTS            from file      0 offset           0 length                 136 to matrix element file.
 Write P(S=P) CONTRACTION COEFFICIENTS     from file      0 offset           0 length                 136 to matrix element file.
 Write COORDINATES OF EACH SHELL           from file      0 offset           0 length                 192 to matrix element file.
 Write BONDS PER ATOM                      from file      0 offset           0 length                  16 to matrix element file.
 Write BONDED ATOMS                        from file      0 offset           0 length                  32 to matrix element file.
 Write BOND TYPES                          from file      0 offset           0 length                  32 to matrix element file.
 Write ONIOM CHARGE/MULT                   from file      0 offset           0 length                  32 to matrix element file.
 Write ONIOM ATOM LAYERS                   from file      0 offset           0 length                  16 to matrix element file.
 Write ONIOM ATOM MODIFIERS                from file      0 offset           0 length                  16 to matrix element file.
 Write ONIOM ATOM TYPES                    from file      0 offset           0 length                  16 to matrix element file.
 Write ONIOM LINK ATOMS                    from file      0 offset           0 length                  16 to matrix element file.
 Write ONIOM LINK CHARGES                  from file      0 offset           0 length                  16 to matrix element file.
 Write ONIOM LINK DISTANCES                from file      0 offset           0 length                  64 to matrix element file.
 Write SYMINF INTS                         from file      0 offset           0 length                  26 to matrix element file.
 Write ROTTR TO SO                         from file      0 offset           0 length                  12 to matrix element file.
 Write GAUSSIAN SCALARS                    from file    501 offset           0 to matrix element file.
 Write OPTIMIZATION FLAGS                  from file      0 offset           0 length                  16 to matrix element file.
 Write INTEGER ISO                         from file      0 offset           0 length                  16 to matrix element file.
 Write INTEGER SPIN                        from file      0 offset           0 length                  16 to matrix element file.
 Write REAL ZEFFECTIVE                     from file      0 offset           0 length                  16 to matrix element file.
 Write REAL QUADRUPOLEMOMENT               from file      0 offset           0 length                  16 to matrix element file.
 Write REAL GFACTOR                        from file      0 offset           0 length                  16 to matrix element file.
 Write REAL ZNUCLEAR                       from file      0 offset           0 length                  16 to matrix element file.
 Write MULLIKEN CHARGES                    from file      0 offset           0 length                  16 to matrix element file.
 Write NUCLEAR GRADIENT                    from file  10584 offset           0 length                  48 to matrix element file.
 Array NUCLEAR FORCE CONSTANTS              on  file  10585 does not exist.
 Write ELECTRIC DIPOLE MOMENT              from file      0 offset           0 length                   3 to matrix element file.
 Write NON-ADIABATIC COUPLING              from file  10810 offset           0 length                  48 to matrix element file.
 Write FINITE EM FIELD                     from file  10521 offset           0 length                  35 to matrix element file.
 Write OVERLAP                             from file  10514 offset           0 length               14196 to matrix element file.
 Write CORE HAMILTONIAN ALPHA              from file  10515 offset           0 length               14196 to matrix element file.
 Write CORE HAMILTONIAN BETA               from file  10515 offset       14196 length               14196 to matrix element file.
 Write KINETIC ENERGY                      from file  10516 offset           0 length               14196 to matrix element file.
 Write ORTHOGONAL BASIS                    from file  10685 offset           0 length               28224 to matrix element file.
 Write DIPOLE INTEGRALS                    from file  10518 offset           0 length               42588 to matrix element file.
 Array DIP VEL INTEGRALS                    on  file  10572 does not exist.
 Array R X DEL INTEGRALS                    on  file  10572 does not exist.
 Write ALPHA ORBITAL ENERGIES              from file      0 offset           0 length                 168 to matrix element file.
 Write ALPHA MO COEFFICIENTS               from file  10524 offset           0 length               28224 to matrix element file.
 Write ALPHA DENSITY MATRIX                from file      0 offset           0 length               14196 to matrix element file.
 Write ALPHA FOCK MATRIX                   from file  10536 offset           0 length               14196 to matrix element file.
 Write ENERGY-WEIGHTED DENSITY             from file  10571 offset           0 length               14196 to matrix element file.
 Write ALPHA SCF DENSITY MATRIX            from file      0 offset           0 length               14196 to matrix element file.
 Write INTEGER PARAMETERS                  from file      0 offset           0 length                   2 to matrix element file.
 No 2e integrals to process.
 Perform NBO analysis...

 *********************************** NBO 7.0 ***********************************
             N A T U R A L   A T O M I C   O R B I T A L   A N D
          N A T U R A L   B O N D   O R B I T A L   A N A L Y S I S
 **************************** Robert Paton (I101709) ***************************
  (c) Copyright 1996-2019 Board of Regents of the University of Wisconsin System
      on behalf of the Theoretical Chemistry Institute.  All rights reserved.

          Cite this program [NBO 7.0.5 (4-Jun-2019)] as:

          NBO 7.0.  E. D. Glendening, J. K. Badenhoop, A. E. Reed,
          J. E. Carpenter, J. A. Bohmann, C. M. Morales, P. Karafiloglou,
          C. R. Landis, and F. Weinhold, Theoretical Chemistry Institute,
          University of Wisconsin, Madison, WI (2018)

       /AONBO  / : Checkpoint the AO to NBO transformation
                   NBOs sorted by occupancy

 Filename set to /gpfs/summit/scratch/lilianac@colostate.edu/10460510

 Job title:  am07_NBO


 NATURAL POPULATIONS:  Natural atomic orbital occupancies

  NAO Atom No lang   Type(AO)    Occupancy      Energy
 -------------------------------------------------------
   1    N  1  s      Cor( 1s)     1.99999     -14.44819
   2    N  1  s      Val( 2s)     1.22384      -0.42896
   3    N  1  s      Ryd( 3s)     0.00061       1.65533
   4    N  1  s      Ryd( 4s)     0.00000      35.47412
   5    N  1  px     Val( 2p)     1.27239      -0.22058
   6    N  1  px     Ryd( 3p)     0.00154       1.03718
   7    N  1  px     Ryd( 4p)     0.00006       4.71666
   8    N  1  py     Val( 2p)     1.35485      -0.24510
   9    N  1  py     Ryd( 3p)     0.00248       1.23462
  10    N  1  py     Ryd( 4p)     0.00004       4.32330
  11    N  1  pz     Val( 2p)     1.73813      -0.30717
  12    N  1  pz     Ryd( 3p)     0.00444       0.79376
  13    N  1  pz     Ryd( 4p)     0.00000       3.87507
  14    N  1  dxy    Ryd( 3d)     0.00078       2.76544
  15    N  1  dxz    Ryd( 3d)     0.00039       2.31526
  16    N  1  dyz    Ryd( 3d)     0.00032       2.17481
  17    N  1  dx2y2  Ryd( 3d)     0.00146       2.74520
  18    N  1  dz2    Ryd( 3d)     0.00095       2.53159

  19    C  2  s      Cor( 1s)     1.99999     -10.33979
  20    C  2  s      Val( 2s)     0.82171      -0.01705
  21    C  2  s      Ryd( 3s)     0.00165       0.88755
  22    C  2  s      Ryd( 4s)     0.00003      22.84325
  23    C  2  px     Val( 2p)     0.92133       0.01518
  24    C  2  px     Ryd( 3p)     0.00610       1.25690
  25    C  2  px     Ryd( 4p)     0.00025       3.25188
  26    C  2  py     Val( 2p)     1.09243      -0.03866
  27    C  2  py     Ryd( 3p)     0.00471       1.35885
  28    C  2  py     Ryd( 4p)     0.00022       3.27484
  29    C  2  pz     Val( 2p)     0.91680      -0.10126
  30    C  2  pz     Ryd( 3p)     0.00068       0.67424
  31    C  2  pz     Ryd( 4p)     0.00000       2.76856
  32    C  2  dxy    Ryd( 3d)     0.00082       2.53595
  33    C  2  dxz    Ryd( 3d)     0.00209       1.71166
  34    C  2  dyz    Ryd( 3d)     0.00070       1.72088
  35    C  2  dx2y2  Ryd( 3d)     0.00093       2.44474
  36    C  2  dz2    Ryd( 3d)     0.00063       2.15776

  37    C  3  s      Cor( 1s)     1.99999     -10.27696
  38    C  3  s      Val( 2s)     0.95150      -0.07842
  39    C  3  s      Ryd( 3s)     0.00150       1.10194
  40    C  3  s      Ryd( 4s)     0.00001      23.15968
  41    C  3  px     Val( 2p)     1.13735      -0.04757
  42    C  3  px     Ryd( 3p)     0.00319       1.29781
  43    C  3  px     Ryd( 4p)     0.00013       3.32954
  44    C  3  py     Val( 2p)     1.12461      -0.03911
  45    C  3  py     Ryd( 3p)     0.00367       1.23534
  46    C  3  py     Ryd( 4p)     0.00016       3.19778
  47    C  3  pz     Val( 2p)     1.11363      -0.12137
  48    C  3  pz     Ryd( 3p)     0.00186       0.65659
  49    C  3  pz     Ryd( 4p)     0.00005       2.77611
  50    C  3  dxy    Ryd( 3d)     0.00125       2.26026
  51    C  3  dxz    Ryd( 3d)     0.00040       1.66133
  52    C  3  dyz    Ryd( 3d)     0.00043       1.63469
  53    C  3  dx2y2  Ryd( 3d)     0.00103       2.43183
  54    C  3  dz2    Ryd( 3d)     0.00091       2.07569

  55    C  4  s      Cor( 1s)     1.99999     -10.30877
  56    C  4  s      Val( 2s)     0.90866      -0.06453
  57    C  4  s      Ryd( 3s)     0.00248       0.87460
  58    C  4  s      Ryd( 4s)     0.00001      23.02338
  59    C  4  px     Val( 2p)     0.99405       0.01802
  60    C  4  px     Ryd( 3p)     0.00897       0.98024
  61    C  4  px     Ryd( 4p)     0.00019       3.13364
  62    C  4  py     Val( 2p)     1.07744      -0.02925
  63    C  4  py     Ryd( 3p)     0.00740       1.22397
  64    C  4  py     Ryd( 4p)     0.00011       2.91174
  65    C  4  pz     Val( 2p)     0.91223      -0.09545
  66    C  4  pz     Ryd( 3p)     0.00100       0.67615
  67    C  4  pz     Ryd( 4p)     0.00005       2.68070
  68    C  4  dxy    Ryd( 3d)     0.00138       2.27648
  69    C  4  dxz    Ryd( 3d)     0.00098       1.73577
  70    C  4  dyz    Ryd( 3d)     0.00084       1.53403
  71    C  4  dx2y2  Ryd( 3d)     0.00232       2.25941
  72    C  4  dz2    Ryd( 3d)     0.00087       1.99798

  73    C  5  s      Cor( 1s)     1.99999     -10.30823
  74    C  5  s      Val( 2s)     0.90978      -0.06525
  75    C  5  s      Ryd( 3s)     0.00236       0.86730
  76    C  5  s      Ryd( 4s)     0.00001      23.06460
  77    C  5  px     Val( 2p)     1.08941      -0.01814
  78    C  5  px     Ryd( 3p)     0.00824       1.07416
  79    C  5  px     Ryd( 4p)     0.00018       3.02233
  80    C  5  py     Val( 2p)     0.98254       0.00533
  81    C  5  py     Ryd( 3p)     0.00793       1.13530
  82    C  5  py     Ryd( 4p)     0.00013       3.03805
  83    C  5  pz     Val( 2p)     0.92101      -0.09675
  84    C  5  pz     Ryd( 3p)     0.00106       0.67722
  85    C  5  pz     Ryd( 4p)     0.00005       2.67908
  86    C  5  dxy    Ryd( 3d)     0.00252       2.23806
  87    C  5  dxz    Ryd( 3d)     0.00067       1.64888
  88    C  5  dyz    Ryd( 3d)     0.00117       1.61905
  89    C  5  dx2y2  Ryd( 3d)     0.00116       2.29372
  90    C  5  dz2    Ryd( 3d)     0.00087       1.99513

  91    C  6  s      Cor( 1s)     1.99999     -10.27864
  92    C  6  s      Val( 2s)     0.95068      -0.07953
  93    C  6  s      Ryd( 3s)     0.00160       1.12053
  94    C  6  s      Ryd( 4s)     0.00001      23.13999
  95    C  6  px     Val( 2p)     1.08683      -0.03122
  96    C  6  px     Ryd( 3p)     0.00383       1.11347
  97    C  6  px     Ryd( 4p)     0.00017       3.38601
  98    C  6  py     Val( 2p)     1.16440      -0.05627
  99    C  6  py     Ryd( 3p)     0.00450       1.36684
 100    C  6  py     Ryd( 4p)     0.00013       3.04182
 101    C  6  pz     Val( 2p)     1.09943      -0.12003
 102    C  6  pz     Ryd( 3p)     0.00119       0.66896
 103    C  6  pz     Ryd( 4p)     0.00005       2.74661
 104    C  6  dxy    Ryd( 3d)     0.00105       2.33267
 105    C  6  dxz    Ryd( 3d)     0.00036       1.72540
 106    C  6  dyz    Ryd( 3d)     0.00051       1.56987
 107    C  6  dx2y2  Ryd( 3d)     0.00123       2.29657
 108    C  6  dz2    Ryd( 3d)     0.00090       2.07249

 109    H  7  s      Val( 1s)     0.77805       0.09777
 110    H  7  s      Ryd( 2s)     0.00137       0.48908
 111    H  7  s      Ryd( 3s)     0.00012       2.38734

 112    H  8  s      Val( 1s)     0.81218       0.08706
 113    H  8  s      Ryd( 2s)     0.00115       0.43789
 114    H  8  s      Ryd( 3s)     0.00017       2.34161

 115    H  9  s      Val( 1s)     0.81119       0.08741
 116    H  9  s      Ryd( 2s)     0.00110       0.43474
 117    H  9  s      Ryd( 3s)     0.00017       2.34027

 118    H 10  s      Val( 1s)     0.78446       0.08774
 119    H 10  s      Ryd( 2s)     0.00183       0.45217
 120    H 10  s      Ryd( 3s)     0.00012       2.36977

 121    H 11  s      Val( 1s)     0.60447       0.15144
 122    H 11  s      Ryd( 2s)     0.00186       0.41807
 123    H 11  s      Ryd( 3s)     0.00026       2.32121

 124    C 12  s      Cor( 1s)     1.99999     -10.31218
 125    C 12  s      Val( 2s)     1.06485      -0.17936
 126    C 12  s      Ryd( 3s)     0.00188       0.95430
 127    C 12  s      Ryd( 4s)     0.00000      23.46741
 128    C 12  px     Val( 2p)     1.02178      -0.08265
 129    C 12  px     Ryd( 3p)     0.00265       0.78363
 130    C 12  px     Ryd( 4p)     0.00007       3.04578
 131    C 12  py     Val( 2p)     1.06490      -0.08940
 132    C 12  py     Ryd( 3p)     0.00301       0.66048
 133    C 12  py     Ryd( 4p)     0.00009       2.96990
 134    C 12  pz     Val( 2p)     1.19694      -0.11806
 135    C 12  pz     Ryd( 3p)     0.00120       0.63950
 136    C 12  pz     Ryd( 4p)     0.00002       2.81937
 137    C 12  dxy    Ryd( 3d)     0.00196       2.01682
 138    C 12  dxz    Ryd( 3d)     0.00053       1.47843
 139    C 12  dyz    Ryd( 3d)     0.00261       1.87508
 140    C 12  dx2y2  Ryd( 3d)     0.00056       1.71965
 141    C 12  dz2    Ryd( 3d)     0.00169       1.83615

 142    H 13  s      Val( 1s)     0.79443       0.06288
 143    H 13  s      Ryd( 2s)     0.00072       0.37246
 144    H 13  s      Ryd( 3s)     0.00004       2.30978

 145    H 14  s      Val( 1s)     0.81422       0.05744
 146    H 14  s      Ryd( 2s)     0.00174       0.43095
 147    H 14  s      Ryd( 3s)     0.00008       2.33998

 148    H 15  s      Val( 1s)     0.80755       0.06073
 149    H 15  s      Ryd( 2s)     0.00138       0.42453
 150    H 15  s      Ryd( 3s)     0.00008       2.35018

 151    N 16  s      Cor( 1s)     1.99999     -14.40413
 152    N 16  s      Val( 2s)     1.37672      -0.40078
 153    N 16  s      Ryd( 3s)     0.00054       2.05533
 154    N 16  s      Ryd( 4s)     0.00000      35.40888
 155    N 16  px     Val( 2p)     1.66729      -0.24595
 156    N 16  px     Ryd( 3p)     0.00592       0.93408
 157    N 16  px     Ryd( 4p)     0.00002       4.35896
 158    N 16  py     Val( 2p)     1.23447      -0.13344
 159    N 16  py     Ryd( 3p)     0.00359       1.21382
 160    N 16  py     Ryd( 4p)     0.00005       4.93591
 161    N 16  pz     Val( 2p)     1.23937      -0.18423
 162    N 16  pz     Ryd( 3p)     0.00088       0.84800
 163    N 16  pz     Ryd( 4p)     0.00001       3.91537
 164    N 16  dxy    Ryd( 3d)     0.00249       2.90587
 165    N 16  dxz    Ryd( 3d)     0.00174       2.26409
 166    N 16  dyz    Ryd( 3d)     0.00034       2.36493
 167    N 16  dx2y2  Ryd( 3d)     0.00155       2.70852
 168    N 16  dz2    Ryd( 3d)     0.00163       2.54209


 Summary of Natural Population Analysis:

                                     Natural Population
             Natural    ---------------------------------------------
  Atom No    Charge        Core      Valence    Rydberg      Total
 --------------------------------------------------------------------
    N  1   -0.60228      1.99999     5.58921    0.01309     7.60228
    C  2    0.22893      1.99999     3.75226    0.01882     5.77107
    C  3   -0.34165      1.99999     4.32708    0.01458     6.34165
    C  4    0.08103      1.99999     3.89237    0.02661     5.91897
    C  5    0.07091      1.99999     3.90274    0.02636     5.92909
    C  6   -0.31685      1.99999     4.30134    0.01552     6.31685
    H  7    0.22047      0.00000     0.77805    0.00148     0.77953
    H  8    0.18650      0.00000     0.81218    0.00132     0.81350
    H  9    0.18754      0.00000     0.81119    0.00127     0.81246
    H 10    0.21359      0.00000     0.78446    0.00195     0.78641
    H 11    0.39342      0.00000     0.60447    0.00211     0.60658
    C 12   -0.36474      1.99999     4.34847    0.01628     6.36474
    H 13    0.20481      0.00000     0.79443    0.00076     0.79519
    H 14    0.18396      0.00000     0.81422    0.00182     0.81604
    H 15    0.19099      0.00000     0.80755    0.00146     0.80901
    N 16   -0.53661      1.99999     5.51786    0.01876     7.53661
 ====================================================================
 * Total *  0.00000     15.99992    41.83789    0.16219    58.00000

                                 Natural Population
 ---------------------------------------------------------
   Core                      15.99992 ( 99.9995% of   16)
   Valence                   41.83789 ( 99.6140% of   42)
   Natural Minimal Basis     57.83781 ( 99.7204% of   58)
   Natural Rydberg Basis      0.16219 (  0.2796% of   58)
 ---------------------------------------------------------

    Atom No         Natural Electron Configuration
 ----------------------------------------------------------------------------
      N  1      [core]2s( 1.22)2p( 4.37)3p( 0.01)
      C  2      [core]2s( 0.82)2p( 2.93)3p( 0.01)3d( 0.01)
      C  3      [core]2s( 0.95)2p( 3.38)3p( 0.01)
      C  4      [core]2s( 0.91)2p( 2.98)3p( 0.02)3d( 0.01)
      C  5      [core]2s( 0.91)2p( 2.99)3p( 0.02)3d( 0.01)
      C  6      [core]2s( 0.95)2p( 3.35)3p( 0.01)
      H  7            1s( 0.78)
      H  8            1s( 0.81)
      H  9            1s( 0.81)
      H 10            1s( 0.78)
      H 11            1s( 0.60)
      C 12      [core]2s( 1.06)2p( 3.28)3p( 0.01)3d( 0.01)
      H 13            1s( 0.79)
      H 14            1s( 0.81)
      H 15            1s( 0.81)
      N 16      [core]2s( 1.38)2p( 4.14)3p( 0.01)3d( 0.01)


 NATURAL BOND ORBITAL ANALYSIS:

                            Occupancies       Lewis Structure    Low   High
         Max    Occ     -------------------  -----------------   occ   occ
  Cycle  Ctr   Thresh    Lewis   non-Lewis     CR  BD  nC  LP    (L)   (NL)
 ============================================================================
    1     2     1.90    55.08162   2.91838      8  17   0   4     3      3
    2     2     1.80    55.08162   2.91838      8  17   0   4     3      3
    3     2     1.74    55.36764   2.63236      8  17   0   4     2      3
    4     2     1.72    55.99246   2.00754      8  18   0   3     1      3
    5     2     1.70    55.99246   2.00754      8  18   0   3     1      3
    6     2     1.61    56.48943   1.51057      8  19   0   2     0      3
    7     2     1.59    56.48943   1.51057      8  19   0   2     0      3
    8     2     1.61    56.48943   1.51057      8  19   0   2     0      3
 ----------------------------------------------------------------------------

 Structure accepted: No low occupancy Lewis orbitals

 -------------------------------------------------------
   Core                     15.99992 (100.000% of  16)
   Valence Lewis            40.48950 ( 96.404% of  42)
  ==================      =============================
   Total Lewis              56.48943 ( 97.396% of  58)
  -----------------------------------------------------
   Valence non-Lewis         1.41740 (  2.444% of  58)
   Rydberg non-Lewis         0.09317 (  0.161% of  58)
  ==================      =============================
   Total non-Lewis           1.51057 (  2.604% of  58)
 -------------------------------------------------------


     (Occupancy)   Bond orbital / Coefficients / Hybrids
 ------------------ Lewis ------------------------------------------------------
   1. (1.99999) CR ( 1) N  1            s(100.00%)
                                         1.0000  0.0000  0.0000  0.0000  0.0000
                                         0.0000  0.0000  0.0000  0.0000  0.0000
                                         0.0000  0.0000  0.0000  0.0000  0.0000
                                         0.0000  0.0000  0.0000
   2. (1.99999) CR ( 1) C  2            s(100.00%)
                                         1.0000  0.0000  0.0000  0.0000  0.0000
                                         0.0000  0.0000  0.0000  0.0000  0.0000
                                         0.0000  0.0000  0.0000  0.0000  0.0000
                                         0.0000  0.0000  0.0000
   3. (1.99999) CR ( 1) C  3            s(100.00%)
                                         1.0000  0.0000  0.0000  0.0000  0.0000
                                         0.0000  0.0000  0.0000  0.0000  0.0000
                                         0.0000  0.0000  0.0000  0.0000  0.0000
                                         0.0000  0.0000  0.0000
   4. (1.99999) CR ( 1) C  4            s(100.00%)
                                         1.0000  0.0000  0.0000  0.0000  0.0000
                                         0.0000  0.0000  0.0000  0.0000  0.0000
                                         0.0000  0.0000  0.0000  0.0000  0.0000
                                         0.0000  0.0000  0.0000
   5. (1.99999) CR ( 1) C  5            s(100.00%)
                                         1.0000  0.0000  0.0000  0.0000  0.0000
                                         0.0000  0.0000  0.0000  0.0000  0.0000
                                         0.0000  0.0000  0.0000  0.0000  0.0000
                                         0.0000  0.0000  0.0000
   6. (1.99999) CR ( 1) C  6            s(100.00%)
                                         1.0000  0.0000  0.0000  0.0000  0.0000
                                         0.0000  0.0000  0.0000  0.0000  0.0000
                                         0.0000  0.0000  0.0000  0.0000  0.0000
                                         0.0000  0.0000  0.0000
   7. (1.99999) CR ( 1) C 12            s(100.00%)
                                         1.0000  0.0000  0.0000  0.0000  0.0000
                                         0.0000  0.0000  0.0000  0.0000  0.0000
                                         0.0000  0.0000  0.0000  0.0000  0.0000
                                         0.0000  0.0000  0.0000
   8. (1.99999) CR ( 1) N 16            s(100.00%)
                                         1.0000  0.0000  0.0000  0.0000  0.0000
                                         0.0000  0.0000  0.0000  0.0000  0.0000
                                         0.0000  0.0000  0.0000  0.0000  0.0000
                                         0.0000  0.0000  0.0000
   9. (1.74834) LP ( 1) N  1            s(  1.47%)p67.06( 98.52%)d 0.01(  0.01%)
                                         0.0000  0.1212 -0.0003  0.0002 -0.0573
                                        -0.0003  0.0000 -0.0732  0.0003  0.0003
                                        -0.9880  0.0187 -0.0007 -0.0001 -0.0084
                                        -0.0029 -0.0007 -0.0065
  10. (1.92274) LP ( 1) N 16            s( 29.41%)p 2.40( 70.50%)d 0.00(  0.09%)
                                         0.0000  0.5422 -0.0115  0.0000  0.8180
                                        -0.0274  0.0008  0.1867 -0.0064  0.0002
                                         0.0134 -0.0005  0.0000 -0.0104 -0.0009
                                        -0.0001 -0.0217  0.0181
  11. (1.98796) BD ( 1) N  1- C  2
               ( 60.56%)   0.7782* N  1 s( 38.87%)p 1.57( 61.06%)d 0.00(  0.08%)
                                         0.0000  0.6234  0.0044  0.0000  0.7582
                                         0.0095  0.0026  0.1876 -0.0077  0.0017
                                         0.0187 -0.0010 -0.0005  0.0114  0.0043
                                         0.0006  0.0176 -0.0171
               ( 39.44%)   0.6280* C  2 s( 30.25%)p 2.30( 69.66%)d 0.00(  0.09%)
                                         0.0000  0.5495  0.0248  0.0005 -0.8105
                                        -0.0272 -0.0007 -0.1953 -0.0185 -0.0006
                                        -0.0198 -0.0037  0.0002  0.0110  0.0008
                                         0.0000  0.0204 -0.0183
  12. (1.98480) BD ( 1) N  1- H 11
               ( 70.09%)   0.8372* N  1 s( 25.85%)p 2.86( 74.05%)d 0.00(  0.10%)
                                         0.0000  0.5083 -0.0129 -0.0003 -0.2179
                                        -0.0108  0.0001 -0.8212 -0.0051  0.0034
                                         0.1359 -0.0014 -0.0006  0.0090 -0.0022
                                        -0.0118 -0.0235 -0.0145
               ( 29.91%)   0.5469* H 11 s(100.00%)
                                         1.0000 -0.0037 -0.0023
  13. (1.99093) BD ( 1) N  1- C 12
               ( 61.94%)   0.7870* N  1 s( 33.71%)p 1.97( 66.24%)d 0.00(  0.05%)
                                         0.0000  0.5805  0.0089  0.0002 -0.6107
                                        -0.0279 -0.0005  0.5329 -0.0138  0.0005
                                         0.0673  0.0004 -0.0004 -0.0164 -0.0048
                                         0.0044 -0.0019 -0.0138
               ( 38.06%)   0.6169* C 12 s( 26.17%)p 2.82( 73.69%)d 0.01(  0.14%)
                                         0.0000  0.5098  0.0420  0.0001  0.6408
                                         0.0186 -0.0002 -0.5658 -0.0481 -0.0009
                                        -0.0593 -0.0067  0.0004 -0.0312 -0.0032
                                         0.0029  0.0021 -0.0201
  14. (1.97277) BD ( 1) C  2- C  3
               ( 51.04%)   0.7144* C  2 s( 35.02%)p 1.85( 64.93%)d 0.00(  0.05%)
                                         0.0000  0.5917 -0.0108 -0.0004  0.2145
                                        -0.0189 -0.0021  0.7764 -0.0036 -0.0016
                                         0.0004 -0.0011  0.0000  0.0082  0.0002
                                        -0.0001 -0.0156 -0.0137
               ( 48.96%)   0.6997* C  3 s( 35.35%)p 1.83( 64.56%)d 0.00(  0.09%)
                                         0.0000  0.5946  0.0070  0.0002 -0.2990
                                        -0.0252  0.0005 -0.7453 -0.0003  0.0019
                                        -0.0010 -0.0010  0.0001  0.0119  0.0003
                                         0.0001 -0.0193 -0.0189
  15. (1.61159) BD ( 2) C  2- C  3
               ( 41.70%)   0.6457* C  2 s(  0.00%)p 1.00( 99.94%)d 0.00(  0.05%)
                                         0.0000 -0.0028  0.0032  0.0000  0.0236
                                        -0.0026 -0.0004 -0.0039  0.0005  0.0003
                                        -0.9994  0.0118  0.0002  0.0001 -0.0162
                                        -0.0169  0.0003 -0.0005
               ( 58.30%)   0.7636* C  3 s(  0.00%)p 1.00( 99.95%)d 0.00(  0.05%)
                                         0.0000 -0.0004  0.0009  0.0001  0.0160
                                        -0.0002  0.0004 -0.0054 -0.0001  0.0002
                                        -0.9995  0.0123 -0.0042 -0.0003 -0.0109
                                         0.0194 -0.0001 -0.0005
  16. (1.97062) BD ( 1) C  2- C  6
               ( 51.22%)   0.7157* C  2 s( 34.49%)p 1.90( 65.46%)d 0.00(  0.05%)
                                         0.0000  0.5872 -0.0055  0.0000  0.5431
                                        -0.0322 -0.0028 -0.5986 -0.0095  0.0002
                                         0.0136 -0.0003  0.0000 -0.0172  0.0005
                                        -0.0005 -0.0039 -0.0136
               ( 48.78%)   0.6984* C  6 s( 35.41%)p 1.82( 64.51%)d 0.00(  0.08%)
                                         0.0000  0.5950  0.0093  0.0002 -0.5932
                                        -0.0275  0.0005  0.5404 -0.0140 -0.0017
                                        -0.0148 -0.0006  0.0000 -0.0221  0.0006
                                        -0.0006 -0.0022 -0.0188
  17. (1.98300) BD ( 1) C  3- C  4
               ( 51.26%)   0.7160* C  3 s( 36.10%)p 1.77( 63.81%)d 0.00(  0.08%)
                                         0.0000  0.6006  0.0188  0.0006  0.7801
                                         0.0125 -0.0014  0.1657  0.0429 -0.0004
                                         0.0113  0.0001  0.0000  0.0026  0.0007
                                        -0.0001  0.0223 -0.0176
               ( 48.74%)   0.6981* C  4 s( 39.17%)p 1.55( 60.76%)d 0.00(  0.08%)
                                         0.0000  0.6257  0.0097 -0.0004 -0.7655
                                        -0.0147 -0.0015 -0.1404  0.0382  0.0015
                                        -0.0127 -0.0004  0.0000  0.0119  0.0007
                                         0.0001  0.0198 -0.0158
  18. (1.97821) BD ( 1) C  3- H  7
               ( 61.06%)   0.7814* C  3 s( 28.46%)p 2.51( 71.44%)d 0.00(  0.10%)
                                         0.0000  0.5330 -0.0222 -0.0007 -0.5469
                                         0.0114 -0.0046  0.6442  0.0018  0.0053
                                        -0.0124 -0.0001  0.0001 -0.0271  0.0005
                                        -0.0006 -0.0045 -0.0162
               ( 38.94%)   0.6240* H  7 s(100.00%)
                                         1.0000  0.0003 -0.0011
  19. (1.98109) BD ( 1) C  4- H  8
               ( 59.73%)   0.7728* C  4 s( 27.91%)p 2.58( 71.96%)d 0.00(  0.13%)
                                         0.0000  0.5275 -0.0305 -0.0001  0.2828
                                         0.0032 -0.0037  0.7993 -0.0269  0.0037
                                         0.0005  0.0001  0.0000  0.0193 -0.0001
                                         0.0001 -0.0252 -0.0158
               ( 40.27%)   0.6346* H  8 s(100.00%)
                                         1.0000 -0.0011 -0.0017
  20. (1.98680) BD ( 1) C  4- N 16
               ( 40.75%)   0.6384* C  4 s( 32.89%)p 2.04( 67.00%)d 0.00(  0.11%)
                                         0.0000  0.5726  0.0310  0.0006  0.5732
                                         0.0733 -0.0005 -0.5796  0.0037 -0.0005
                                         0.0126  0.0013  0.0000 -0.0262  0.0007
                                        -0.0007 -0.0036 -0.0199
               ( 59.25%)   0.7697* N 16 s( 35.52%)p 1.81( 64.33%)d 0.00(  0.16%)
                                         0.0000  0.5959  0.0092  0.0000 -0.5306
                                         0.0076 -0.0005  0.6003  0.0333  0.0016
                                        -0.0140 -0.0001  0.0000 -0.0309  0.0011
                                        -0.0007  0.0134 -0.0207
  21. (1.74250) BD ( 2) C  4- N 16
               ( 37.66%)   0.6137* C  4 s(  0.00%)p 1.00( 99.85%)d 0.00(  0.15%)
                                         0.0000  0.0004 -0.0001  0.0001 -0.0171
                                         0.0002 -0.0002  0.0052 -0.0001 -0.0001
                                         0.9990 -0.0106  0.0067  0.0007  0.0158
                                        -0.0348  0.0000  0.0009
               ( 62.34%)   0.7895* N 16 s(  0.00%)p 1.00( 99.85%)d 0.00(  0.15%)
                                         0.0000  0.0003  0.0000  0.0000 -0.0182
                                        -0.0001  0.0001  0.0070  0.0001  0.0000
                                         0.9990  0.0092 -0.0030 -0.0002 -0.0388
                                        -0.0034  0.0007 -0.0011
  22. (1.98358) BD ( 1) C  5- C  6
               ( 48.75%)   0.6982* C  5 s( 39.22%)p 1.55( 60.70%)d 0.00(  0.08%)
                                         0.0000  0.6262  0.0094 -0.0003 -0.7495
                                         0.0031  0.0025 -0.2084 -0.0405 -0.0005
                                        -0.0120  0.0003  0.0000  0.0080  0.0008
                                         0.0001  0.0216 -0.0157
               ( 51.25%)   0.7159* C  6 s( 36.45%)p 1.74( 63.46%)d 0.00(  0.08%)
                                         0.0000  0.6035  0.0180  0.0005  0.7734
                                         0.0287 -0.0013  0.1852 -0.0339 -0.0009
                                         0.0135  0.0008  0.0000  0.0161  0.0008
                                         0.0002  0.0162 -0.0175
  23. (1.72519) BD ( 2) C  5- C  6
               ( 43.74%)   0.6614* C  5 s(  0.00%)p 1.00( 99.93%)d 0.00(  0.07%)
                                         0.0000  0.0002  0.0003  0.0000  0.0182
                                        -0.0006 -0.0001 -0.0074  0.0002  0.0001
                                        -0.9993  0.0203 -0.0059  0.0003  0.0249
                                        -0.0055 -0.0004  0.0008
               ( 56.26%)   0.7501* C  6 s(  0.00%)p 1.00( 99.95%)d 0.00(  0.05%)
                                         0.0000 -0.0002  0.0009  0.0000  0.0190
                                        -0.0009 -0.0001 -0.0062  0.0000  0.0001
                                        -0.9994  0.0166 -0.0050  0.0001 -0.0132
                                        -0.0180  0.0005 -0.0004
  24. (1.98111) BD ( 1) C  5- H  9
               ( 59.77%)   0.7731* C  5 s( 28.03%)p 2.56( 71.85%)d 0.00(  0.13%)
                                         0.0000  0.5286 -0.0296 -0.0001  0.6046
                                        -0.0086  0.0049 -0.5933  0.0248 -0.0018
                                         0.0155 -0.0004 -0.0001 -0.0316  0.0008
                                        -0.0008 -0.0005 -0.0158
               ( 40.23%)   0.6343* H  9 s(100.00%)
                                         1.0000 -0.0009 -0.0017
  25. (1.98637) BD ( 1) C  5- N 16
               ( 40.79%)   0.6387* C  5 s( 32.71%)p 2.05( 67.18%)d 0.00(  0.11%)
                                         0.0000  0.5711  0.0303  0.0006  0.2611
                                         0.0679  0.0003  0.7734  0.0286  0.0011
                                        -0.0008  0.0010  0.0000  0.0133  0.0001
                                        -0.0002 -0.0229 -0.0201
               ( 59.21%)   0.7695* N 16 s( 35.06%)p 1.85( 64.79%)d 0.00(  0.15%)
                                         0.0000  0.5920  0.0091  0.0000 -0.2145
                                         0.0219  0.0003 -0.7750 -0.0264 -0.0015
                                         0.0014  0.0005  0.0000  0.0295  0.0001
                                         0.0002 -0.0159 -0.0207
  26. (1.97912) BD ( 1) C  6- H 10
               ( 60.76%)   0.7795* C  6 s( 28.06%)p 2.56( 71.84%)d 0.00(  0.10%)
                                         0.0000  0.5292 -0.0241 -0.0007 -0.2166
                                         0.0128 -0.0009 -0.8193  0.0057 -0.0071
                                         0.0008 -0.0002  0.0000  0.0134 -0.0001
                                        -0.0001 -0.0242 -0.0161
               ( 39.24%)   0.6264* H 10 s(100.00%)
                                         1.0000  0.0000 -0.0012
  27. (1.98850) BD ( 1) C 12- H 13
               ( 60.16%)   0.7756* C 12 s( 24.01%)p 3.16( 75.85%)d 0.01(  0.14%)
                                         0.0000  0.4900 -0.0044 -0.0001 -0.7615
                                         0.0071 -0.0012 -0.4216  0.0183 -0.0020
                                        -0.0207  0.0008  0.0000  0.0308  0.0023
                                         0.0007  0.0123 -0.0184
               ( 39.84%)   0.6312* H 13 s(100.00%)
                                         1.0000  0.0003 -0.0002
  28. (1.99297) BD ( 1) C 12- H 14
               ( 59.75%)   0.7730* C 12 s( 25.10%)p 2.98( 74.76%)d 0.01(  0.14%)
                                         0.0000  0.5009 -0.0116  0.0001  0.0591
                                        -0.0182  0.0014  0.4380  0.0015 -0.0009
                                         0.7428 -0.0091 -0.0006  0.0042  0.0030
                                         0.0279 -0.0074  0.0233
               ( 40.25%)   0.6344* H 14 s(100.00%)
                                         1.0000 -0.0040 -0.0007
  29. (1.99131) BD ( 1) C 12- H 15
               ( 59.93%)   0.7742* C 12 s( 24.89%)p 3.01( 74.97%)d 0.01(  0.14%)
                                         0.0000  0.4988 -0.0108  0.0000  0.0322
                                        -0.0172  0.0010  0.5532 -0.0007 -0.0009
                                        -0.6650  0.0098  0.0001  0.0038 -0.0013
                                        -0.0320 -0.0116  0.0153
               ( 40.07%)   0.6330* H 15 s(100.00%)
                                         1.0000 -0.0028 -0.0006
 ---------------- non-Lewis ----------------------------------------------------
  30. (0.02639) BD*( 1) N  1- C  2
               ( 39.44%)   0.6280* N  1 s( 38.87%)p 1.57( 61.06%)d 0.00(  0.08%)
                                         0.0000 -0.6234 -0.0044  0.0000 -0.7582
                                        -0.0095 -0.0026 -0.1876  0.0077 -0.0017
                                        -0.0187  0.0010  0.0005 -0.0114 -0.0043
                                        -0.0006 -0.0176  0.0171
               ( 60.56%)  -0.7782* C  2 s( 30.25%)p 2.30( 69.66%)d 0.00(  0.09%)
                                         0.0000 -0.5495 -0.0248 -0.0005  0.8105
                                         0.0272  0.0007  0.1953  0.0185  0.0006
                                         0.0198  0.0037 -0.0002 -0.0110 -0.0008
                                         0.0000 -0.0204  0.0183
  31. (0.01545) BD*( 1) N  1- H 11
               ( 29.91%)   0.5469* N  1 s( 25.85%)p 2.86( 74.05%)d 0.00(  0.10%)
                                         0.0000 -0.5083  0.0129  0.0003  0.2179
                                         0.0108 -0.0001  0.8212  0.0051 -0.0034
                                        -0.1359  0.0014  0.0006 -0.0090  0.0022
                                         0.0118  0.0235  0.0145
               ( 70.09%)  -0.8372* H 11 s(100.00%)
                                        -1.0000  0.0037  0.0023
  32. (0.00810) BD*( 1) N  1- C 12
               ( 38.06%)   0.6169* N  1 s( 33.71%)p 1.97( 66.24%)d 0.00(  0.05%)
                                         0.0000 -0.5805 -0.0089 -0.0002  0.6107
                                         0.0279  0.0005 -0.5329  0.0138 -0.0005
                                        -0.0673 -0.0004  0.0004  0.0164  0.0048
                                        -0.0044  0.0019  0.0138
               ( 61.94%)  -0.7870* C 12 s( 26.17%)p 2.82( 73.69%)d 0.01(  0.14%)
                                         0.0000 -0.5098 -0.0420 -0.0001 -0.6408
                                        -0.0186  0.0002  0.5658  0.0481  0.0009
                                         0.0593  0.0067 -0.0004  0.0312  0.0032
                                        -0.0029 -0.0021  0.0201
  33. (0.02483) BD*( 1) C  2- C  3
               ( 48.96%)   0.6997* C  2 s( 35.02%)p 1.85( 64.93%)d 0.00(  0.05%)
                                         0.0000 -0.5917  0.0108  0.0004 -0.2145
                                         0.0189  0.0021 -0.7764  0.0036  0.0016
                                        -0.0004  0.0011  0.0000 -0.0082 -0.0002
                                         0.0001  0.0156  0.0137
               ( 51.04%)  -0.7144* C  3 s( 35.35%)p 1.83( 64.56%)d 0.00(  0.09%)
                                         0.0000 -0.5946 -0.0070 -0.0002  0.2990
                                         0.0252 -0.0005  0.7453  0.0003 -0.0019
                                         0.0010  0.0010 -0.0001 -0.0119 -0.0003
                                        -0.0001  0.0193  0.0189
  34. (0.41946) BD*( 2) C  2- C  3
               ( 58.30%)   0.7636* C  2 s(  0.00%)p 1.00( 99.94%)d 0.00(  0.05%)
                                         0.0000 -0.0028  0.0032  0.0000  0.0236
                                        -0.0026 -0.0004 -0.0039  0.0005  0.0003
                                        -0.9994  0.0118  0.0002  0.0001 -0.0162
                                        -0.0169  0.0003 -0.0005
               ( 41.70%)  -0.6457* C  3 s(  0.00%)p 1.00( 99.95%)d 0.00(  0.05%)
                                         0.0000 -0.0004  0.0009  0.0001  0.0160
                                        -0.0002  0.0004 -0.0054 -0.0001  0.0002
                                        -0.9995  0.0123 -0.0042 -0.0003 -0.0109
                                         0.0194 -0.0001 -0.0005
  35. (0.02296) BD*( 1) C  2- C  6
               ( 48.78%)   0.6984* C  2 s( 34.49%)p 1.90( 65.46%)d 0.00(  0.05%)
                                         0.0000 -0.5872  0.0055  0.0000 -0.5431
                                         0.0322  0.0028  0.5986  0.0095 -0.0002
                                        -0.0136  0.0003  0.0000  0.0172 -0.0005
                                         0.0005  0.0039  0.0136
               ( 51.22%)  -0.7157* C  6 s( 35.41%)p 1.82( 64.51%)d 0.00(  0.08%)
                                         0.0000 -0.5950 -0.0093 -0.0002  0.5932
                                         0.0275 -0.0005 -0.5404  0.0140  0.0017
                                         0.0148  0.0006  0.0000  0.0221 -0.0006
                                         0.0006  0.0022  0.0188
  36. (0.02462) BD*( 1) C  3- C  4
               ( 48.74%)   0.6981* C  3 s( 36.10%)p 1.77( 63.81%)d 0.00(  0.08%)
                                         0.0000 -0.6006 -0.0188 -0.0006 -0.7801
                                        -0.0125  0.0014 -0.1657 -0.0429  0.0004
                                        -0.0113 -0.0001  0.0000 -0.0026 -0.0007
                                         0.0001 -0.0223  0.0176
               ( 51.26%)  -0.7160* C  4 s( 39.17%)p 1.55( 60.76%)d 0.00(  0.08%)
                                         0.0000 -0.6257 -0.0097  0.0004  0.7655
                                         0.0147  0.0015  0.1404 -0.0382 -0.0015
                                         0.0127  0.0004  0.0000 -0.0119 -0.0007
                                        -0.0001 -0.0198  0.0158
  37. (0.01274) BD*( 1) C  3- H  7
               ( 38.94%)   0.6240* C  3 s( 28.46%)p 2.51( 71.44%)d 0.00(  0.10%)
                                         0.0000 -0.5330  0.0222  0.0007  0.5469
                                        -0.0114  0.0046 -0.6442 -0.0018 -0.0053
                                         0.0124  0.0001 -0.0001  0.0271 -0.0005
                                         0.0006  0.0045  0.0162
               ( 61.06%)  -0.7814* H  7 s(100.00%)
                                        -1.0000 -0.0003  0.0011
  38. (0.02407) BD*( 1) C  4- H  8
               ( 40.27%)   0.6346* C  4 s( 27.91%)p 2.58( 71.96%)d 0.00(  0.13%)
                                         0.0000 -0.5275  0.0305  0.0001 -0.2828
                                        -0.0032  0.0037 -0.7993  0.0269 -0.0037
                                        -0.0005 -0.0001  0.0000 -0.0193  0.0001
                                        -0.0001  0.0252  0.0158
               ( 59.73%)  -0.7728* H  8 s(100.00%)
                                        -1.0000  0.0011  0.0017
  39. (0.01513) BD*( 1) C  4- N 16
               ( 59.25%)   0.7697* C  4 s( 32.89%)p 2.04( 67.00%)d 0.00(  0.11%)
                                         0.0000  0.5726  0.0310  0.0006  0.5732
                                         0.0733 -0.0005 -0.5796  0.0037 -0.0005
                                         0.0126  0.0013  0.0000 -0.0262  0.0007
                                        -0.0007 -0.0036 -0.0199
               ( 40.75%)  -0.6384* N 16 s( 35.52%)p 1.81( 64.33%)d 0.00(  0.16%)
                                         0.0000  0.5959  0.0092  0.0000 -0.5306
                                         0.0076 -0.0005  0.6003  0.0333  0.0016
                                        -0.0140 -0.0001  0.0000 -0.0309  0.0011
                                        -0.0007  0.0134 -0.0207
  40. (0.41105) BD*( 2) C  4- N 16
               ( 62.34%)   0.7895* C  4 s(  0.00%)p 1.00( 99.85%)d 0.00(  0.15%)
                                         0.0000  0.0004 -0.0001  0.0001 -0.0171
                                         0.0002 -0.0002  0.0052 -0.0001 -0.0001
                                         0.9990 -0.0106  0.0067  0.0007  0.0158
                                        -0.0348  0.0000  0.0009
               ( 37.66%)  -0.6137* N 16 s(  0.00%)p 1.00( 99.85%)d 0.00(  0.15%)
                                         0.0000  0.0003  0.0000  0.0000 -0.0182
                                        -0.0001  0.0001  0.0070  0.0001  0.0000
                                         0.9990  0.0092 -0.0030 -0.0002 -0.0388
                                        -0.0034  0.0007 -0.0011
  41. (0.02388) BD*( 1) C  5- C  6
               ( 51.25%)   0.7159* C  5 s( 39.22%)p 1.55( 60.70%)d 0.00(  0.08%)
                                         0.0000  0.6262  0.0094 -0.0003 -0.7495
                                         0.0031  0.0025 -0.2084 -0.0405 -0.0005
                                        -0.0120  0.0003  0.0000  0.0080  0.0008
                                         0.0001  0.0216 -0.0157
               ( 48.75%)  -0.6982* C  6 s( 36.45%)p 1.74( 63.46%)d 0.00(  0.08%)
                                         0.0000  0.6035  0.0180  0.0005  0.7734
                                         0.0287 -0.0013  0.1852 -0.0339 -0.0009
                                         0.0135  0.0008  0.0000  0.0161  0.0008
                                         0.0002  0.0162 -0.0175
  42. (0.29669) BD*( 2) C  5- C  6
               ( 56.26%)   0.7501* C  5 s(  0.00%)p 1.00( 99.93%)d 0.00(  0.07%)
                                         0.0000 -0.0002 -0.0003  0.0000 -0.0182
                                         0.0006  0.0001  0.0074 -0.0002 -0.0001
                                         0.9993 -0.0203  0.0059 -0.0003 -0.0249
                                         0.0055  0.0004 -0.0008
               ( 43.74%)  -0.6614* C  6 s(  0.00%)p 1.00( 99.95%)d 0.00(  0.05%)
                                         0.0000  0.0002 -0.0009  0.0000 -0.0190
                                         0.0009  0.0001  0.0062  0.0000 -0.0001
                                         0.9994 -0.0166  0.0050 -0.0001  0.0132
                                         0.0180 -0.0005  0.0004
  43. (0.02376) BD*( 1) C  5- H  9
               ( 40.23%)   0.6343* C  5 s( 28.03%)p 2.56( 71.85%)d 0.00(  0.13%)
                                         0.0000 -0.5286  0.0296  0.0001 -0.6046
                                         0.0086 -0.0049  0.5933 -0.0248  0.0018
                                        -0.0155  0.0004  0.0001  0.0316 -0.0008
                                         0.0008  0.0005  0.0158
               ( 59.77%)  -0.7731* H  9 s(100.00%)
                                        -1.0000  0.0009  0.0017
  44. (0.01543) BD*( 1) C  5- N 16
               ( 59.21%)   0.7695* C  5 s( 32.71%)p 2.05( 67.18%)d 0.00(  0.11%)
                                         0.0000  0.5711  0.0303  0.0006  0.2611
                                         0.0679  0.0003  0.7734  0.0286  0.0011
                                        -0.0008  0.0010  0.0000  0.0133  0.0001
                                        -0.0002 -0.0229 -0.0201
               ( 40.79%)  -0.6387* N 16 s( 35.06%)p 1.85( 64.79%)d 0.00(  0.15%)
                                         0.0000  0.5920  0.0091  0.0000 -0.2145
                                         0.0219  0.0003 -0.7750 -0.0264 -0.0015
                                         0.0014  0.0005  0.0000  0.0295  0.0001
                                         0.0002 -0.0159 -0.0207
  45. (0.01297) BD*( 1) C  6- H 10
               ( 39.24%)   0.6264* C  6 s( 28.06%)p 2.56( 71.84%)d 0.00(  0.10%)
                                         0.0000 -0.5292  0.0241  0.0007  0.2166
                                        -0.0128  0.0009  0.8193 -0.0057  0.0071
                                        -0.0008  0.0002  0.0000 -0.0134  0.0001
                                         0.0001  0.0242  0.0161
               ( 60.76%)  -0.7795* H 10 s(100.00%)
                                        -1.0000  0.0000  0.0012
  46. (0.00362) BD*( 1) C 12- H 13
               ( 39.84%)   0.6312* C 12 s( 24.01%)p 3.16( 75.85%)d 0.01(  0.14%)
                                         0.0000 -0.4900  0.0044  0.0001  0.7615
                                        -0.0071  0.0012  0.4216 -0.0183  0.0020
                                         0.0207 -0.0008  0.0000 -0.0308 -0.0023
                                        -0.0007 -0.0123  0.0184
               ( 60.16%)  -0.7756* H 13 s(100.00%)
                                        -1.0000 -0.0003  0.0002
  47. (0.02008) BD*( 1) C 12- H 14
               ( 40.25%)   0.6344* C 12 s( 25.10%)p 2.98( 74.76%)d 0.01(  0.14%)
                                         0.0000 -0.5009  0.0116 -0.0001 -0.0591
                                         0.0182 -0.0014 -0.4380 -0.0015  0.0009
                                        -0.7428  0.0091  0.0006 -0.0042 -0.0030
                                        -0.0279  0.0074 -0.0233
               ( 59.75%)  -0.7730* H 14 s(100.00%)
                                        -1.0000  0.0040  0.0007
  48. (0.01619) BD*( 1) C 12- H 15
               ( 40.07%)   0.6330* C 12 s( 24.89%)p 3.01( 74.97%)d 0.01(  0.14%)
                                         0.0000 -0.4988  0.0108  0.0000 -0.0322
                                         0.0172 -0.0010 -0.5532  0.0007  0.0009
                                         0.6650 -0.0098 -0.0001 -0.0038  0.0013
                                         0.0320  0.0116 -0.0153
               ( 59.93%)  -0.7742* H 15 s(100.00%)
                                        -1.0000  0.0028  0.0006
  49. (0.00394) RY ( 1) N  1            s(  0.79%)p99.99( 97.39%)d 2.31(  1.82%)
                                         0.0000 -0.0027  0.0887 -0.0017  0.0003
                                        -0.0635 -0.0009 -0.0017 -0.1051 -0.0057
                                        -0.0180 -0.9790  0.0002 -0.0187 -0.0240
                                        -0.1251  0.0278 -0.0290
  50. (0.00263) RY ( 2) N  1            s(  5.83%)p14.12( 82.30%)d 2.04( 11.87%)
                                         0.0000 -0.0140  0.2410 -0.0017  0.0010
                                        -0.0038  0.0261 -0.0172 -0.8976 -0.0020
                                         0.0016  0.1278 -0.0038 -0.1905 -0.0040
                                         0.0256  0.2846 -0.0275
  51. (0.00047) RY ( 3) N  1            s(  5.22%)p10.30( 53.72%)d 7.87( 41.06%)
                                         0.0000 -0.0115  0.2280 -0.0067  0.0018
                                        -0.7125 -0.0321 -0.0111  0.1433  0.0700
                                         0.0003  0.0542 -0.0039  0.4054  0.0207
                                         0.0397  0.4872 -0.0833
  52. (0.00023) RY ( 4) N  1            s(  0.73%)p 1.36(  0.99%)d99.99( 98.28%)
                                         0.0000  0.0010  0.0852 -0.0011  0.0020
                                         0.0874  0.0255 -0.0029  0.0213 -0.0073
                                         0.0070 -0.0128 -0.0299  0.0963 -0.9497
                                         0.2644  0.0293  0.0301
  53. (0.00015) RY ( 5) N  1            s( 46.59%)p 1.09( 50.83%)d 0.06(  2.58%)
                                         0.0000  0.0071  0.6822 -0.0221 -0.0145
                                         0.3188  0.5657 -0.0106  0.2245 -0.1874
                                         0.0017  0.0197 -0.0220  0.0416  0.1147
                                        -0.0168  0.1004 -0.0225
  54. (0.00005) RY ( 6) N  1            s(  8.12%)p 5.01( 40.71%)d 6.30( 51.18%)
  55. (0.00002) RY ( 7) N  1            s(  3.01%)p11.81( 35.56%)d20.40( 61.43%)
  56. (0.00001) RY ( 8) N  1            s(  1.63%)p 3.24(  5.28%)d57.05( 93.09%)
  57. (0.00001) RY ( 9) N  1            s( 24.77%)p 2.13( 52.69%)d 0.91( 22.54%)
[...]
   22. BD ( 1) C  5- C  6       1.98358    -0.69360  30(v),35(g),63(v),44(g)
                                                     45(g),157(v),43(g),156(v)
                                                     133(v)
   23. BD ( 2) C  5- C  6       1.72519    -0.31375  34(v),40(v),158(v),42(g)
                                                     116(g),65(v),67(v)
   24. BD ( 1) C  5- H  9       1.98111    -0.56231  39(v),35(v),156(v),45(v)
                                                     114(v)
   25. BD ( 1) C  5- N 16       1.98637    -0.78146  89(v),38(v),41(g),45(v)
                                                     115(v),39(g),88(v)
   26. BD ( 1) C  6- H 10       1.97912    -0.56654  44(v),33(v),30(v),43(v)
                                                     41(g),102(v),101(v),62(v)
                                                     63(v)
   27. BD ( 1) C 12- H 13       1.98850    -0.57262  30(v),31(v),50(v)
   28. BD ( 1) C 12- H 14       1.99297    -0.56944  49(v)
   29. BD ( 1) C 12- H 15       1.99131    -0.56937  31(v),49(v)
 ------ non-Lewis ----------------------------------
   30. BD*( 1) N  1- C  2       0.02639     0.58238
   31. BD*( 1) N  1- H 11       0.01545     0.51917
   32. BD*( 1) N  1- C 12       0.00810     0.45452
   33. BD*( 1) C  2- C  3       0.02483     0.64388
   34. BD*( 2) C  2- C  3       0.41946     0.07563
   35. BD*( 1) C  2- C  6       0.02296     0.64015
   36. BD*( 1) C  3- C  4       0.02462     0.67329
   37. BD*( 1) C  3- H  7       0.01274     0.53895
   38. BD*( 1) C  4- H  8       0.02407     0.53381
   39. BD*( 1) C  4- N 16       0.01513     0.64607
   40. BD*( 2) C  4- N 16       0.41105     0.06896
   41. BD*( 1) C  5- C  6       0.02388     0.67876
   42. BD*( 2) C  5- C  6       0.29669     0.09402
   43. BD*( 1) C  5- H  9       0.02376     0.53423
   44. BD*( 1) C  5- N 16       0.01543     0.63807
   45. BD*( 1) C  6- H 10       0.01297     0.52873
   46. BD*( 1) C 12- H 13       0.00362     0.49164
   47. BD*( 1) C 12- H 14       0.02008     0.47907
   48. BD*( 1) C 12- H 15       0.01619     0.48315
   49. RY ( 1) N  1             0.00394     0.79406
   50. RY ( 2) N  1             0.00263     1.36645
   51. RY ( 3) N  1             0.00047     1.93772
   52. RY ( 4) N  1             0.00023     2.29684
   53. RY ( 5) N  1             0.00015     2.68809
   54. RY ( 6) N  1             0.00005     3.93815
   55. RY ( 7) N  1             0.00002     2.44647
   56. RY ( 8) N  1             0.00001     2.26304
   57. RY ( 9) N  1             0.00001     3.40373
   58. RY (10) N  1             0.00000     2.71487
   59. RY (11) N  1             0.00000     3.47871
   60. RY (12) N  1             0.00000    33.35439
   61. RY (13) N  1             0.00000     4.95287
   62. RY ( 1) C  2             0.00584     1.46909
   63. RY ( 2) C  2             0.00413     1.57240
   64. RY ( 3) C  2             0.00278     1.59011
   65. RY ( 4) C  2             0.00071     1.68632
   66. RY ( 5) C  2             0.00067     1.54872
   67. RY ( 6) C  2             0.00035     1.54377
   68. RY ( 7) C  2             0.00019     2.79618
   69. RY ( 8) C  2             0.00010     4.82688
   70. RY ( 9) C  2             0.00006     4.28601
   71. RY (10) C  2             0.00004     3.04200
   72. RY (11) C  2             0.00002     2.90728
   73. RY (12) C  2             0.00000    16.80614
   74. RY (13) C  2             0.00000     2.80341
   75. RY ( 1) C  3             0.00361     1.44721
   76. RY ( 2) C  3             0.00151     0.61506
   77. RY ( 3) C  3             0.00096     1.51134
   78. RY ( 4) C  3             0.00051     1.14033
   79. RY ( 5) C  3             0.00031     1.71294
   80. RY ( 6) C  3             0.00014     3.14484
   81. RY ( 7) C  3             0.00010     3.27404
   82. RY ( 8) C  3             0.00005     1.62450
   83. RY ( 9) C  3             0.00003     2.26418
   84. RY (10) C  3             0.00001     3.29248
   85. RY (11) C  3             0.00000     5.55299
   86. RY (12) C  3             0.00000    18.37104
   87. RY (13) C  3             0.00000     2.85228
   88. RY ( 1) C  4             0.00722     1.27205
   89. RY ( 2) C  4             0.00493     1.25194
   90. RY ( 3) C  4             0.00189     1.56929
   91. RY ( 4) C  4             0.00066     0.84495
   92. RY ( 5) C  4             0.00055     2.25919
   93. RY ( 6) C  4             0.00031     1.53483
   94. RY ( 7) C  4             0.00009     3.23926
   95. RY ( 8) C  4             0.00002     2.75116
   96. RY ( 9) C  4             0.00001     3.65729
   97. RY (10) C  4             0.00000     1.68807
   98. RY (11) C  4             0.00000     2.71034
   99. RY (12) C  4             0.00000    11.86243
  100. RY (13) C  4             0.00000    10.64383
  101. RY ( 1) C  5             0.00703     1.28537
  102. RY ( 2) C  5             0.00493     1.25788
  103. RY ( 3) C  5             0.00169     1.53436
  104. RY ( 4) C  5             0.00063     0.87792
  105. RY ( 5) C  5             0.00052     2.54050
  106. RY ( 6) C  5             0.00030     1.32059
  107. RY ( 7) C  5             0.00009     3.11695
  108. RY ( 8) C  5             0.00002     2.69257
  109. RY ( 9) C  5             0.00001     1.46183
  110. RY (10) C  5             0.00001     2.43459
  111. RY (11) C  5             0.00000     5.91299
  112. RY (12) C  5             0.00000     2.80970
  113. RY (13) C  5             0.00000    18.08686
  114. RY ( 1) C  6             0.00458     1.40412
  115. RY ( 2) C  6             0.00114     1.34946
  116. RY ( 3) C  6             0.00087     0.71619
  117. RY ( 4) C  6             0.00049     1.15171
  118. RY ( 5) C  6             0.00030     1.64112
  119. RY ( 6) C  6             0.00016     3.10944
  120. RY ( 7) C  6             0.00009     3.53208
  121. RY ( 8) C  6             0.00005     1.64718
  122. RY ( 9) C  6             0.00004     2.30595
  123. RY (10) C  6             0.00001     3.40352
  124. RY (11) C  6             0.00000     5.70247
  125. RY (12) C  6             0.00000    17.78704
  126. RY (13) C  6             0.00000     2.81615
  127. RY ( 1) H  7             0.00137     0.48918
  128. RY ( 2) H  7             0.00012     2.38671
  129. RY ( 1) H  8             0.00115     0.43792
  130. RY ( 2) H  8             0.00017     2.34040
  131. RY ( 1) H  9             0.00110     0.43473
  132. RY ( 2) H  9             0.00017     2.33913
  133. RY ( 1) H 10             0.00183     0.45217
  134. RY ( 2) H 10             0.00012     2.36912
  135. RY ( 1) H 11             0.00186     0.41774
  136. RY ( 2) H 11             0.00026     2.31879
  137. RY ( 1) C 12             0.00262     0.98146
  138. RY ( 2) C 12             0.00208     1.08378
  139. RY ( 3) C 12             0.00053     1.71760
  140. RY ( 4) C 12             0.00011     1.59341
  141. RY ( 5) C 12             0.00009     1.43629
  142. RY ( 6) C 12             0.00006     2.16941
  143. RY ( 7) C 12             0.00002     2.14446
  144. RY ( 8) C 12             0.00001     2.07761
  145. RY ( 9) C 12             0.00000     2.60067
  146. RY (10) C 12             0.00000     1.87056
  147. RY (11) C 12             0.00000     2.41160
  148. RY (12) C 12             0.00000    21.44680
  149. RY (13) C 12             0.00000     2.71022
  150. RY ( 1) H 13             0.00072     0.37255
  151. RY ( 2) H 13             0.00004     2.30970
  152. RY ( 1) H 14             0.00175     0.43027
  153. RY ( 2) H 14             0.00008     2.33898
  154. RY ( 1) H 15             0.00139     0.42401
  155. RY ( 2) H 15             0.00008     2.34950
  156. RY ( 1) N 16             0.00435     0.89865
  157. RY ( 2) N 16             0.00137     1.32033
  158. RY ( 3) N 16             0.00089     0.84501
  159. RY ( 4) N 16             0.00030     2.37025
  160. RY ( 5) N 16             0.00012     3.28537
  161. RY ( 6) N 16             0.00005     3.53363
  162. RY ( 7) N 16             0.00003     2.53809
  163. RY ( 8) N 16             0.00001     2.79184
  164. RY ( 9) N 16             0.00001     4.55207
  165. RY (10) N 16             0.00000     3.90653
  166. RY (11) N 16             0.00000    34.16885
  167. RY (12) N 16             0.00000     2.28332
  168. RY (13) N 16             0.00000     3.95255
          -------------------------------
                 Total Lewis   56.48943  ( 97.3956%)
           Valence non-Lewis    1.41740  (  2.4438%)
           Rydberg non-Lewis    0.09317  (  0.1606%)
          -------------------------------
               Total unit  1   58.00000  (100.0000%)
              Charge unit  1    0.00000

 $CHOOSE
   LONE 1 1 16 1 END
   BOND S 1 2 S 1 11 S 1 12 D 2 3 S 2 6 S 3 4 S 3 7 S 4 8 D 4 16 D 5 6 S 5 9
        S 5 16 S 6 10 S 12 13 S 12 14 S 12 15 END
 $END


 Checkpoint NBOs sorted by occupancy:

  Sort    Occ       Energy   Orig   Label
 -----------------------------------------------------------
    1.  1.99999   -14.44819    1.   CR ( 1) N  1
    2.  1.99999   -10.31218    7.   CR ( 1) C 12
    3.  1.99999   -10.33979    2.   CR ( 1) C  2
    4.  1.99999   -10.27696    3.   CR ( 1) C  3
    5.  1.99999   -10.30877    4.   CR ( 1) C  4
    6.  1.99999   -10.30823    5.   CR ( 1) C  5
    7.  1.99999   -10.27864    6.   CR ( 1) C  6
    8.  1.99999   -14.40413    8.   CR ( 1) N 16
    9.  1.99297    -0.56944   28.   BD ( 1) C 12- H 14
   10.  1.99131    -0.56937   29.   BD ( 1) C 12- H 15
   11.  1.99093    -0.75016   13.   BD ( 1) N  1- C 12
   12.  1.98850    -0.57262   27.   BD ( 1) C 12- H 13
   13.  1.98796    -0.81297   11.   BD ( 1) N  1- C  2
   14.  1.98680    -0.78562   20.   BD ( 1) C  4- N 16
   15.  1.98637    -0.78146   25.   BD ( 1) C  5- N 16
   16.  1.98480    -0.69168   12.   BD ( 1) N  1- H 11
   17.  1.98358    -0.69360   22.   BD ( 1) C  5- C  6
   18.  1.98300    -0.69009   17.   BD ( 1) C  3- C  4
   19.  1.98111    -0.56231   24.   BD ( 1) C  5- H  9
   20.  1.98109    -0.56169   19.   BD ( 1) C  4- H  8
   21.  1.97912    -0.56654   26.   BD ( 1) C  6- H 10
   22.  1.97821    -0.56535   18.   BD ( 1) C  3- H  7
   23.  1.97277    -0.68395   14.   BD ( 1) C  2- C  3
   24.  1.97062    -0.68234   16.   BD ( 1) C  2- C  6
   25.  1.92274    -0.36498   10.   LP ( 1) N 16
   26.  1.74834    -0.31318    9.   LP ( 1) N  1
   27.  1.74250    -0.34735   21.   BD ( 2) C  4- N 16
   28.  1.72519    -0.31375   23.   BD ( 2) C  5- C  6
   29.  1.61159    -0.29941   15.   BD ( 2) C  2- C  3
   30.  0.41946     0.07563   34.   BD*( 2) C  2- C  3
   31.  0.41105     0.06896   40.   BD*( 2) C  4- N 16
   32.  0.29669     0.09402   42.   BD*( 2) C  5- C  6
   33.  0.02639     0.58238   30.   BD*( 1) N  1- C  2
   34.  0.02483     0.64388   33.   BD*( 1) C  2- C  3
   35.  0.02462     0.67329   36.   BD*( 1) C  3- C  4
   36.  0.02407     0.53381   38.   BD*( 1) C  4- H  8
   37.  0.02388     0.67876   41.   BD*( 1) C  5- C  6
   38.  0.02376     0.53423   43.   BD*( 1) C  5- H  9
   39.  0.02296     0.64015   35.   BD*( 1) C  2- C  6
   40.  0.02008     0.47907   47.   BD*( 1) C 12- H 14
   41.  0.01619     0.48315   48.   BD*( 1) C 12- H 15
   42.  0.01545     0.51917   31.   BD*( 1) N  1- H 11
   43.  0.01543     0.63807   44.   BD*( 1) C  5- N 16
   44.  0.01513     0.64607   39.   BD*( 1) C  4- N 16
   45.  0.01297     0.52873   45.   BD*( 1) C  6- H 10
   46.  0.01274     0.53895   37.   BD*( 1) C  3- H  7
   47.  0.00810     0.45452   32.   BD*( 1) N  1- C 12
   48.  0.00722     1.27205   88.   RY ( 1) C  4
   49.  0.00703     1.28537  101.   RY ( 1) C  5
   50.  0.00584     1.46909   62.   RY ( 1) C  2
   51.  0.00493     1.25194   89.   RY ( 2) C  4
   52.  0.00493     1.25788  102.   RY ( 2) C  5
   53.  0.00458     1.40412  114.   RY ( 1) C  6
   54.  0.00435     0.89865  156.   RY ( 1) N 16
   55.  0.00413     1.57240   63.   RY ( 2) C  2
   56.  0.00394     0.79406   49.   RY ( 1) N  1
   57.  0.00362     0.49164   46.   BD*( 1) C 12- H 13
   58.  0.00361     1.44721   75.   RY ( 1) C  3
   59.  0.00278     1.59011   64.   RY ( 3) C  2
   60.  0.00263     1.36645   50.   RY ( 2) N  1
   61.  0.00262     0.98146  137.   RY ( 1) C 12
   62.  0.00208     1.08378  138.   RY ( 2) C 12
   63.  0.00189     1.56929   90.   RY ( 3) C  4
   64.  0.00186     0.41774  135.   RY ( 1) H 11
   65.  0.00183     0.45217  133.   RY ( 1) H 10
   66.  0.00175     0.43027  152.   RY ( 1) H 14
   67.  0.00169     1.53436  103.   RY ( 3) C  5
   68.  0.00151     0.61506   76.   RY ( 2) C  3
   69.  0.00139     0.42401  154.   RY ( 1) H 15
   70.  0.00137     1.32033  157.   RY ( 2) N 16
   71.  0.00137     0.48918  127.   RY ( 1) H  7
   72.  0.00115     0.43792  129.   RY ( 1) H  8
   73.  0.00114     1.34946  115.   RY ( 2) C  6
   74.  0.00110     0.43473  131.   RY ( 1) H  9
   75.  0.00096     1.51134   77.   RY ( 3) C  3
   76.  0.00089     0.84501  158.   RY ( 3) N 16
   77.  0.00087     0.71619  116.   RY ( 3) C  6
   78.  0.00072     0.37255  150.   RY ( 1) H 13
   79.  0.00071     1.68632   65.   RY ( 4) C  2
   80.  0.00067     1.54872   66.   RY ( 5) C  2
   81.  0.00066     0.84495   91.   RY ( 4) C  4
   82.  0.00063     0.87792  104.   RY ( 4) C  5
   83.  0.00055     2.25919   92.   RY ( 5) C  4
   84.  0.00053     1.71760  139.   RY ( 3) C 12
   85.  0.00052     2.54050  105.   RY ( 5) C  5
   86.  0.00051     1.14033   78.   RY ( 4) C  3
   87.  0.00049     1.15171  117.   RY ( 4) C  6
   88.  0.00047     1.93772   51.   RY ( 3) N  1
   89.  0.00035     1.54377   67.   RY ( 6) C  2
   90.  0.00031     1.53483   93.   RY ( 6) C  4
   91.  0.00031     1.71294   79.   RY ( 5) C  3
   92.  0.00030     1.32059  106.   RY ( 6) C  5
   93.  0.00030     2.37025  159.   RY ( 4) N 16
   94.  0.00030     1.64112  118.   RY ( 5) C  6
   95.  0.00026     2.31879  136.   RY ( 2) H 11
   96.  0.00023     2.29684   52.   RY ( 4) N  1
   97.  0.00019     2.79618   68.   RY ( 7) C  2
   98.  0.00017     2.34040  130.   RY ( 2) H  8
   99.  0.00017     2.33913  132.   RY ( 2) H  9
  100.  0.00016     3.10944  119.   RY ( 6) C  6
  101.  0.00015     2.68809   53.   RY ( 5) N  1
  102.  0.00014     3.14484   80.   RY ( 6) C  3
  103.  0.00012     2.36912  134.   RY ( 2) H 10
  104.  0.00012     3.28537  160.   RY ( 5) N 16
  105.  0.00012     2.38671  128.   RY ( 2) H  7
  106.  0.00011     1.59341  140.   RY ( 4) C 12
  107.  0.00010     4.82688   69.   RY ( 8) C  2
  108.  0.00010     3.27404   81.   RY ( 7) C  3
  109.  0.00009     1.43629  141.   RY ( 5) C 12
  110.  0.00009     3.23926   94.   RY ( 7) C  4
  111.  0.00009     3.53208  120.   RY ( 7) C  6
  112.  0.00009     3.11695  107.   RY ( 7) C  5
  113.  0.00008     2.33898  153.   RY ( 2) H 14
  114.  0.00008     2.34950  155.   RY ( 2) H 15
  115.  0.00006     4.28601   70.   RY ( 9) C  2
  116.  0.00006     2.16941  142.   RY ( 6) C 12
  117.  0.00005     1.62450   82.   RY ( 8) C  3
  118.  0.00005     1.64718  121.   RY ( 8) C  6
  119.  0.00005     3.93815   54.   RY ( 6) N  1
  120.  0.00005     3.53363  161.   RY ( 6) N 16
  121.  0.00004     2.30595  122.   RY ( 9) C  6
  122.  0.00004     3.04200   71.   RY (10) C  2
  123.  0.00004     2.30970  151.   RY ( 2) H 13
  124.  0.00003     2.53809  162.   RY ( 7) N 16
  125.  0.00003     2.26418   83.   RY ( 9) C  3
  126.  0.00002     2.14446  143.   RY ( 7) C 12
  127.  0.00002     2.90728   72.   RY (11) C  2
  128.  0.00002     2.44647   55.   RY ( 7) N  1
  129.  0.00002     2.75116   95.   RY ( 8) C  4
  130.  0.00002     2.69257  108.   RY ( 8) C  5
  131.  0.00001     2.26304   56.   RY ( 8) N  1
  132.  0.00001     3.29248   84.   RY (10) C  3
  133.  0.00001     1.46183  109.   RY ( 9) C  5
  134.  0.00001     3.40373   57.   RY ( 9) N  1
  135.  0.00001     2.43459  110.   RY (10) C  5
  136.  0.00001     3.40352  123.   RY (10) C  6
  137.  0.00001     2.79184  163.   RY ( 8) N 16
  138.  0.00001     3.65729   96.   RY ( 9) C  4
  139.  0.00000     2.71487   58.   RY (10) N  1
  140.  0.00000    16.80614   73.   RY (12) C  2
  141.  0.00000     5.55299   85.   RY (11) C  3
  142.  0.00000     5.70247  124.   RY (11) C  6
  143.  0.00001     2.07761  144.   RY ( 8) C 12
  144.  0.00001     4.55207  164.   RY ( 9) N 16
  145.  0.00000     1.68807   97.   RY (10) C  4
  146.  0.00000     3.47871   59.   RY (11) N  1
  147.  0.00000    33.35439   60.   RY (12) N  1
  148.  0.00000     4.95287   61.   RY (13) N  1
  149.  0.00000     2.80341   74.   RY (13) C  2
  150.  0.00000    18.37104   86.   RY (12) C  3
  151.  0.00000     2.71034   98.   RY (11) C  4
  152.  0.00000     5.91299  111.   RY (11) C  5
  153.  0.00000     2.85228   87.   RY (13) C  3
  154.  0.00000    11.86243   99.   RY (12) C  4
  155.  0.00000    10.64383  100.   RY (13) C  4
  156.  0.00000     2.80970  112.   RY (12) C  5
  157.  0.00000    18.08686  113.   RY (13) C  5
  158.  0.00000    17.78704  125.   RY (12) C  6
  159.  0.00000     2.60067  145.   RY ( 9) C 12
  160.  0.00000     2.81615  126.   RY (13) C  6
  161.  0.00000     1.87056  146.   RY (10) C 12
  162.  0.00000     2.41160  147.   RY (11) C 12
  163.  0.00000    21.44680  148.   RY (12) C 12
  164.  0.00000     2.71022  149.   RY (13) C 12
  165.  0.00000     3.90653  165.   RY (10) N 16
  166.  0.00000    34.16885  166.   RY (11) N 16
  167.  0.00000     2.28332  167.   RY (12) N 16
  168.  0.00000     3.95255  168.   RY (13) N 16

 NBO analysis completed in 0.50 CPU seconds (0 wall seconds)
 Maximum scratch memory used by NBO was 577912 words (4.41 MB)
 Maximum scratch memory used by G16NBO was 51876 words (0.40 MB)

 Opening RunExU unformatted file "/gpfs/summit/scratch/lilianac@colostate.edu/10460510/Gau-156621.EUF"
 Read unf file /gpfs/summit/scratch/lilianac@colostate.edu/10460510/Gau-156621.EUF:
 Label Gaussian matrix elements                                         IVers= 2 NLab= 2 Version=ES64L-G16RevC.01
 Title am07_NBO                                                        
 NAtoms=    16 NBasis=   168 NBsUse=   168 ICharg=     0 Multip=     1 NE=    58 Len12L=8 Len4L=8 IOpCl= 0 ICGU=111
 GAUSSIAN SCALARS                    NI= 1 NR= 1 NTot=       1 LenBuf=    2 NRI=1 N=    1000
 ALPHA ORBITAL ENERGIES              NI= 0 NR= 1 NTot=     168 LenBuf= 2048 NRI=1 N=     168
 ALPHA MO COEFFICIENTS               NI= 0 NR= 1 NTot=   28224 LenBuf= 2048 NRI=1 N=     168     168
 Store file  10524 Len=   28224.
 NPA CHARGES                         NI= 0 NR= 1 NTot=      16 LenBuf= 2048 NRI=1 N=      16
 Recovered energy= -342.915136591     dipole=     -2.045875416564     -0.505815005767      0.118968473363
 Unable to Open any file for archive entry.
 1\1\GINC-SSKY0951\SP\RwB97XD\6-311G(d)\C6H8N2\LILIANAC@COLOSTATE.EDU\0
 4-May-2022\0\\# wb97xd/6-311g(d) pop=(nbo6read,savenbos) scrf=(solvent
 =toluene,smd)\\am07_NBO\\0,1\N,0,1.757791,-0.609892,0.065956\C,0,0.437
 869,-0.282213,0.026696\C,0,-0.013089,1.047766,0.02429\C,0,-1.376923,1.
 292706,0.003811\C,0,-1.883764,-0.91042,-0.019635\C,0,-0.554611,-1.2799
 34,0.00205\H,0,0.679644,1.880496,0.038742\H,0,-1.730151,2.321623,0.003
 034\H,0,-2.652468,-1.67957,-0.039437\H,0,-0.280221,-2.330544,0.002465\
 H,0,1.992532,-1.57657,-0.078529\C,0,2.822014,0.357764,-0.045528\H,0,3.
 776003,-0.168213,-0.015967\H,0,2.772669,0.927953,-0.981688\H,0,2.80529
 8,1.064141,0.790402\N,0,-2.322402,0.353702,-0.018689\\Version=ES64L-G1
 6RevC.01\State=1-A\HF=-342.9151366\RMSD=5.967e-09\Dipole=2.0458754,-0.
 505815,-0.1189685\Quadrupole=-1.3077549,4.9555775,-3.6478226,0.6338593
 ,-0.5413597,0.4163017\PG=C01 [X(C6H8N2)]\\@
 The archive entry for this job was punched.


 MANHOOD BEGINS BY TRYING TO SHAVE FACE,
 AND ENDS BY TRYING TO SAVE FACE.
 Job cpu time:       0 days  0 hours  2 minutes  5.7 seconds.
 Elapsed time:       0 days  0 hours  0 minutes 33.4 seconds.
 File lengths (MBytes):  RWF=    168 Int=      0 D2E=      0 Chk=     16 Scr=     16
 Normal termination of Gaussian 16 at Wed May  4 21:38:31 2022.
