Job Start Time: Tue Nov  8 11:54:18 MST 2022
SLURM Job ID: 83471
SLURM Job Name: am52_a_NMR2
 Entering Gaussian System, Link 0=/opt/apps/Gaussian/G16C/g16/g16
 Initial command:
 /opt/apps/Gaussian/G16C/g16/l1.exe "/tmp/Gau-3787149.inp" -scrdir="/tmp/"
 Entering Link 1 = /opt/apps/Gaussian/G16C/g16/l1.exe PID=   3787150.
  
 Copyright (c) 1988-2019, Gaussian, Inc.  All Rights Reserved.
  
 This is part of the Gaussian(R) 16 program.  It is based on
 the Gaussian(R) 09 system (copyright 2009, Gaussian, Inc.),
 the Gaussian(R) 03 system (copyright 2003, Gaussian, Inc.),
 the Gaussian(R) 98 system (copyright 1998, Gaussian, Inc.),
 the Gaussian(R) 94 system (copyright 1995, Gaussian, Inc.),
 the Gaussian 92(TM) system (copyright 1992, Gaussian, Inc.),
 the Gaussian 90(TM) system (copyright 1990, Gaussian, Inc.),
 the Gaussian 88(TM) system (copyright 1988, Gaussian, Inc.),
 the Gaussian 86(TM) system (copyright 1986, Carnegie Mellon
 University), and the Gaussian 82(TM) system (copyright 1983,
 Carnegie Mellon University). Gaussian is a federally registered
 trademark of Gaussian, Inc.
  
 This software contains proprietary and confidential information,
 including trade secrets, belonging to Gaussian, Inc.
  
 This software is provided under written license and may be
 used, copied, transmitted, or stored only in accord with that
 written license.
  
 The following legend is applicable only to US Government
 contracts under FAR:
  
                    RESTRICTED RIGHTS LEGEND
  
 Use, reproduction and disclosure by the US Government is
 subject to restrictions as set forth in subparagraphs (a)
 and (c) of the Commercial Computer Software - Restricted
 Rights clause in FAR 52.227-19.
  
 Gaussian, Inc.
 340 Quinnipiac St., Bldg. 40, Wallingford CT 06492
  
  
 ---------------------------------------------------------------
 Warning -- This program may not be used in any manner that
 competes with the business of Gaussian, Inc. or will provide
 assistance to any competitor of Gaussian, Inc.  The licensee
 of this program is prohibited from giving any competitor of
 Gaussian, Inc. access to this program.  By using this program,
 the user acknowledges that Gaussian, Inc. is engaged in the
 business of creating and licensing software in the field of
 computational chemistry and represents and warrants to the
 licensee that it is not a competitor of Gaussian, Inc. and that
 it will not use this program in any manner prohibited above.
 ---------------------------------------------------------------
  

 Cite this work as:
 Gaussian 16, Revision C.01,
 M. J. Frisch, G. W. Trucks, H. B. Schlegel, G. E. Scuseria, 
 M. A. Robb, J. R. Cheeseman, G. Scalmani, V. Barone, 
 G. A. Petersson, H. Nakatsuji, X. Li, M. Caricato, A. V. Marenich, 
 J. Bloino, B. G. Janesko, R. Gomperts, B. Mennucci, H. P. Hratchian, 
 J. V. Ortiz, A. F. Izmaylov, J. L. Sonnenberg, D. Williams-Young, 
 F. Ding, F. Lipparini, F. Egidi, J. Goings, B. Peng, A. Petrone, 
 T. Henderson, D. Ranasinghe, V. G. Zakrzewski, J. Gao, N. Rega, 
 G. Zheng, W. Liang, M. Hada, M. Ehara, K. Toyota, R. Fukuda, 
 J. Hasegawa, M. Ishida, T. Nakajima, Y. Honda, O. Kitao, H. Nakai, 
 T. Vreven, K. Throssell, J. A. Montgomery, Jr., J. E. Peralta, 
 F. Ogliaro, M. J. Bearpark, J. J. Heyd, E. N. Brothers, K. N. Kudin, 
 V. N. Staroverov, T. A. Keith, R. Kobayashi, J. Normand, 
 K. Raghavachari, A. P. Rendell, J. C. Burant, S. S. Iyengar, 
 J. Tomasi, M. Cossi, J. M. Millam, M. Klene, C. Adamo, R. Cammi, 
 J. W. Ochterski, R. L. Martin, K. Morokuma, O. Farkas, 
 J. B. Foresman, and D. J. Fox, Gaussian, Inc., Wallingford CT, 2019.
 
 ******************************************
 Gaussian 16:  AS64L-G16RevC.01  3-Jul-2019
                 8-Nov-2022 
 ******************************************
 %chk=am52_a_NMR.chk
 %mem=24GB
 %nprocshared=12
 Will use up to   12 processors via shared memory.
 ---------------------------------
 # nmr=GIAO mpw1pw91/6-311+G(2d,p)
 ---------------------------------
 1/38=1,172=1/1;
 2/12=2,17=6,18=5,40=1/2;
 3/5=4,6=6,7=112,11=2,25=1,30=1,74=-7/1,2,3,8;
 4//1;
 5/5=2,38=5/2;
 8/6=1,10=90,11=11/1;
 10/13=100,45=16/2;
 6/7=2,8=2,9=2,10=2,28=1/1;
 99/9=1/99;
 ----------
 am52_a_NMR
 ----------
 Symbolic Z-matrix:
 Charge =  0 Multiplicity = 1
 O                     2.33906   0.03232   0.03183 
 C                     1.12096   0.0275    0.00822 
 N                     0.38731   1.16752  -0.00282 
 C                    -1.05864   1.25255  -0.14627 
 C                    -1.69519  -0.0437    0.31685 
 N                    -1.03605  -1.13504  -0.3816 
 C                     0.34133  -1.27619   0.06589 
 H                     0.92609   2.01673  -0.08128 
 H                    -1.32557   1.43496  -1.19327 
 H                    -1.42153   2.09142   0.45325 
 H                    -1.60792  -0.12625   1.41466 
 H                    -2.75681  -0.03623   0.06148 
 H                     0.42517  -1.63172   1.10812 
 H                     0.8698   -1.99164  -0.56563 
 H                    -1.53132  -2.00416  -0.22909 
 
                          Input orientation:                          
 ---------------------------------------------------------------------
 Center     Atomic      Atomic             Coordinates (Angstroms)
 Number     Number       Type             X           Y           Z
 ---------------------------------------------------------------------
      1          8           0        2.339059    0.032321    0.031829
      2          6           0        1.120964    0.027500    0.008216
      3          7           0        0.387306    1.167518   -0.002824
      4          6           0       -1.058637    1.252551   -0.146270
      5          6           0       -1.695192   -0.043697    0.316851
      6          7           0       -1.036047   -1.135044   -0.381602
      7          6           0        0.341333   -1.276186    0.065888
      8          1           0        0.926091    2.016727   -0.081282
      9          1           0       -1.325574    1.434961   -1.193271
     10          1           0       -1.421525    2.091419    0.453252
     11          1           0       -1.607920   -0.126253    1.414655
     12          1           0       -2.756811   -0.036234    0.061478
     13          1           0        0.425168   -1.631720    1.108123
     14          1           0        0.869800   -1.991643   -0.565626
     15          1           0       -1.531322   -2.004165   -0.229093
 ---------------------------------------------------------------------
                    Distance matrix (angstroms):
                    1          2          3          4          5
     1  O    0.000000
     2  C    1.218333   0.000000
     3  N    2.258144   1.355735   0.000000
     4  C    3.614556   2.505050   1.455527   0.000000
     5  C    4.045021   2.833912   2.430233   1.516556   0.000000
     6  N    3.595137   2.481162   2.733349   2.399271   1.453736
     7  C    2.388359   1.520114   2.445102   2.898178   2.393626
     8  H    2.438676   2.000752   1.008762   2.127753   3.357824
     9  H    4.110694   3.067583   2.103009   1.095783   2.145580
    10  H    4.308071   3.304855   2.081698   1.093075   2.156900
    11  H    4.185212   3.073844   2.768396   2.153903   1.104358
    12  H    5.096417   3.878664   3.367288   2.141943   1.091928
    13  H    2.755072   2.108777   3.011872   3.477671   2.764752
    14  H    2.571401   2.114076   3.244972   3.797305   3.339527
    15  H    4.381233   3.349418   3.713745   3.291882   2.041652
                    6          7          8          9         10
     6  N    0.000000
     7  C    1.455110   0.000000
     8  H    3.724760   3.347667   0.000000
     9  H    2.710638   3.422627   2.577783   0.000000
    10  H    3.354942   3.820796   2.408860   1.775157   0.000000
    11  H    2.138045   2.634598   3.640248   3.052603   2.424275
    12  H    2.089194   3.337064   4.218862   2.405670   2.542318
    13  H    2.145021   1.104394   3.869984   4.214979   4.207243
    14  H    2.097589   1.090856   4.037919   4.117672   4.791626
    15  H    1.011893   2.030715   4.714690   3.577647   4.153487
                   11         12         13         14         15
    11  H    0.000000
    12  H    1.777398   0.000000
    13  H    2.548301   3.710260   0.000000
    14  H    3.679713   4.167636   1.768807   0.000000
    15  H    2.496864   2.336452   2.398899   2.424623   0.000000
 Stoichiometry    C4H8N2O
 Framework group  C1[X(C4H8N2O)]
 Deg. of freedom    39
 Full point group                 C1      NOp   1
 Largest Abelian subgroup         C1      NOp   1
 Largest concise Abelian subgroup C1      NOp   1
                         Standard orientation:                         
 ---------------------------------------------------------------------
 Center     Atomic      Atomic             Coordinates (Angstroms)
 Number     Number       Type             X           Y           Z
 ---------------------------------------------------------------------
      1          8           0        2.339059    0.032322    0.031829
      2          6           0        1.120964    0.027501    0.008216
      3          7           0        0.387305    1.167518   -0.002824
      4          6           0       -1.058638    1.252551   -0.146270
      5          6           0       -1.695192   -0.043698    0.316851
      6          7           0       -1.036046   -1.135044   -0.381602
      7          6           0        0.341334   -1.276186    0.065888
      8          1           0        0.926090    2.016728   -0.081282
      9          1           0       -1.325575    1.434961   -1.193271
     10          1           0       -1.421526    2.091419    0.453252
     11          1           0       -1.607920   -0.126254    1.414655
     12          1           0       -2.756811   -0.036235    0.061478
     13          1           0        0.425169   -1.631720    1.108123
     14          1           0        0.869801   -1.991642   -0.565626
     15          1           0       -1.531321   -2.004166   -0.229093
 ---------------------------------------------------------------------
 Rotational constants (GHZ):           4.7829521           2.5815878           1.7807721
 Standard basis: 6-311+G(2d,p) (5D, 7F)
 There are   251 symmetry adapted cartesian basis functions of A   symmetry.
 There are   237 symmetry adapted basis functions of A   symmetry.
   237 basis functions,   358 primitive gaussians,   251 cartesian basis functions
    27 alpha electrons       27 beta electrons
       nuclear repulsion energy       318.1178395625 Hartrees.
 NAtoms=   15 NActive=   15 NUniq=   15 SFac= 1.00D+00 NAtFMM=   60 NAOKFM=F Big=F
 Integral buffers will be    131072 words long.
 Raffenetti 2 integral format.
 Two-electron integral symmetry is turned on.
 One-electron integrals computed using PRISM.
 NBasis=   237 RedAO= T EigKep=  2.89D-05  NBF=   237
 NBsUse=   237 1.00D-06 EigRej= -1.00D+00 NBFU=   237
 ExpMin= 4.38D-02 ExpMax= 8.59D+03 ExpMxC= 1.30D+03 IAcc=3 IRadAn=         5 AccDes= 0.00D+00
 Harris functional with IExCor=  908 and IRadAn=       5 diagonalized for initial guess.
 HarFok:  IExCor=  908 AccDes= 0.00D+00 IRadAn=         5 IDoV= 1 UseB2=F ITyADJ=14
 ICtDFT=  3500011 ScaDFX=  1.000000  1.000000  1.000000  1.000000
 FoFCou: FMM=F IPFlag=           0 FMFlag=      100000 FMFlg1=           0
         NFxFlg=           0 DoJE=T BraDBF=F KetDBF=T FulRan=T
         wScrn=  0.000000 ICntrl=       500 IOpCl=  0 I1Cent=   200000004 NGrid=           0
         NMat0=    1 NMatS0=      1 NMatT0=    0 NMatD0=    1 NMtDS0=    0 NMtDT0=    0
 Petite list used in FoFCou.
 Requested convergence on RMS density matrix=1.00D-08 within 128 cycles.
 Requested convergence on MAX density matrix=1.00D-06.
 Requested convergence on             energy=1.00D-06.
 No special actions if energy rises.
 SCF Done:  E(RmPW1PW91) =  -341.998151261     A.U. after   12 cycles
            NFock= 12  Conv=0.56D-08     -V/T= 2.0040
 DoSCS=F DFT=T ScalE2(SS,OS)=  1.000000  1.000000
 Range of M.O.s used for correlation:     1   237
 NBasis=   237 NAE=    27 NBE=    27 NFC=     0 NFV=     0
 NROrb=    237 NOA=    27 NOB=    27 NVA=   210 NVB=   210

 **** Warning!!: The largest alpha MO coefficient is  0.46695341D+02

          Differentiating once with respect to magnetic field using GIAOs.
          Electric field/nuclear overlap derivatives assumed to be zero.
 FoFCou: FMM=F IPFlag=           0 FMFlag=      100000 FMFlg1=           0
         NFxFlg=           0 DoJE=F BraDBF=F KetDBF=T FulRan=T
         wScrn=  0.000000 ICntrl=      6100 IOpCl=  0 I1Cent=           7 NGrid=          15
         NMat0=    1 NMatS0=      1 NMatT0=    0 NMatD0=    1 NMtDS0=    0 NMtDT0=    0
 Symmetry not used in FoFCou.
 FoFJK:  IHMeth= 1 ICntrl=    6127 DoSepK=F KAlg= 0 I1Cent=           0 FoldK=F
 IRaf=         1 NMat=       1 IRICut=       1 DoRegI=T DoRafI=F ISym2E= 0 IDoP0=0 IntGTp=1.
          There are     3 degrees of freedom in the 1st order CPHF.  IDoFFX=0 NUNeed=     3.
      3 vectors produced by pass  0 Test12= 1.89D-13 3.33D-08 XBig12= 8.89D+00 4.68D-01.
 AX will form     3 AO Fock derivatives at one time.
      3 vectors produced by pass  1 Test12= 1.89D-13 3.33D-08 XBig12= 3.95D-02 6.37D-02.
      3 vectors produced by pass  2 Test12= 1.89D-13 3.33D-08 XBig12= 2.99D-04 2.88D-03.
      3 vectors produced by pass  3 Test12= 1.89D-13 3.33D-08 XBig12= 8.78D-07 1.60D-04.
      3 vectors produced by pass  4 Test12= 1.89D-13 3.33D-08 XBig12= 2.94D-09 8.89D-06.
      3 vectors produced by pass  5 Test12= 1.89D-13 3.33D-08 XBig12= 1.16D-11 6.25D-07.
      1 vectors produced by pass  6 Test12= 1.89D-13 3.33D-08 XBig12= 3.25D-14 6.53D-08.
 InvSVY:  IOpt=1 It=  1 EMax= 4.44D-16
 Solved reduced A of dimension    19 with     3 vectors.
 Calculating GIAO nuclear magnetic shielding tensors.
 SCF GIAO Magnetic shielding tensor (ppm):
      1  O    Isotropic =   -59.3631   Anisotropy =   550.8368
   XX=  -299.6817   YX=    31.1847   ZX=   -12.7091
   XY=    35.2715   YY=  -185.6861   ZY=    15.2752
   XZ=    19.2416   YZ=    17.7188   ZZ=   307.2783
   Eigenvalues:  -308.6623  -177.2886   307.8614
      2  C    Isotropic =    18.4847   Anisotropy =   127.8931
   XX=    22.5215   YX=     4.0544   ZX=     0.5049
   XY=    -5.9644   YY=   -70.7198   ZY=     3.0863
   XZ=    -1.2721   YZ=     4.9385   ZZ=   103.6525
   Eigenvalues:   -70.8216    22.5290   103.7468
      3  N    Isotropic =   138.1315   Anisotropy =   111.8431
   XX=    57.4459   YX=   -63.2060   ZX=     0.5488
   XY=   -32.2168   YY=   197.2078   ZY=    -5.4802
   XZ=     0.3810   YZ=    -7.4368   ZZ=   159.7409
   Eigenvalues:    42.6934   159.0076   212.6936
      4  C    Isotropic =   142.4925   Anisotropy =    19.2587
   XX=   155.0851   YX=     7.3157   ZX=     2.2017
   XY=    -3.6731   YY=   137.6393   ZY=    -0.7830
   XZ=     0.2605   YZ=    -1.7615   ZZ=   134.7531
   Eigenvalues:   134.1156   138.0302   155.3316
      5  C    Isotropic =   141.7448   Anisotropy =    27.6469
   XX=   131.3601   YX=   -14.6037   ZX=    -9.2967
   XY=   -14.5276   YY=   146.8693   ZY=     8.4021
   XZ=     3.8667   YZ=     6.3771   ZZ=   147.0051
   Eigenvalues:   122.5173   142.5411   160.1761
      6  N    Isotropic =   216.7489   Anisotropy =    56.2667
   XX=   206.8275   YX=    10.3696   ZX=     3.3503
   XY=    21.5283   YY=   245.1719   ZY=    12.0104
   XZ=     3.6447   YZ=    14.4619   ZZ=   198.2474
   Eigenvalues:   194.7091   201.2776   254.2601
      7  C    Isotropic =   134.0568   Anisotropy =    36.7477
   XX=   157.8325   YX=    -2.2373   ZX=     4.8785
   XY=     9.7483   YY=   121.4827   ZY=     3.5207
   XZ=     1.7586   YZ=    -0.0981   ZZ=   122.8552
   Eigenvalues:   120.2750   123.3401   158.5552
      8  H    Isotropic =    27.2327   Anisotropy =     9.2642
   XX=    27.5360   YX=     1.1570   ZX=     0.1369
   XY=     4.6568   YY=    31.9111   ZY=    -0.7294
   XZ=     0.1676   YZ=    -1.0424   ZZ=    22.2511
   Eigenvalues:    22.1327    26.1566    33.4088
      9  H    Isotropic =    28.3294   Anisotropy =     8.6313
   XX=    29.2045   YX=    -1.2028   ZX=     3.6716
   XY=    -1.0746   YY=    25.8971   ZY=    -3.5230
   XZ=     2.6321   YZ=    -3.2800   ZZ=    29.8867
   Eigenvalues:    23.8644    27.0403    34.0836
     10  H    Isotropic =    28.8288   Anisotropy =     8.5654
   XX=    29.0059   YX=    -2.9108   ZX=    -1.2862
   XY=    -2.4226   YY=    31.9124   ZY=     2.5186
   XZ=    -0.8338   YZ=     3.3189   ZZ=    25.5682
   Eigenvalues:    24.4296    27.5178    34.5391
     11  H    Isotropic =    28.8722   Anisotropy =     8.5491
   XX=    25.3454   YX=    -0.6105   ZX=    -3.9046
   XY=     0.1441   YY=    27.9419   ZY=     1.3337
   XZ=    -2.6595   YZ=    -0.0925   ZZ=    33.3294
   Eigenvalues:    24.1694    27.8756    34.5716
     12  H    Isotropic =    28.9145   Anisotropy =     8.0991
   XX=    34.2005   YX=    -0.2145   ZX=    -0.3652
   XY=    -1.6054   YY=    27.0114   ZY=     0.4546
   XZ=     0.4957   YZ=     0.9358   ZZ=    25.5317
   Eigenvalues:    25.2382    27.1915    34.3139
     13  H    Isotropic =    28.3390   Anisotropy =     6.9239
   XX=    28.8037   YX=    -0.2484   ZX=     3.1945
   XY=    -1.0437   YY=    26.9771   ZY=    -2.9078
   XZ=     1.3539   YZ=    -4.0091   ZZ=    29.2362
   Eigenvalues:    24.2968    27.7653    32.9550
     14  H    Isotropic =    28.3327   Anisotropy =     6.9713
   XX=    31.0219   YX=    -2.4280   ZX=    -1.1187
   XY=    -2.8812   YY=    27.7328   ZY=     1.8252
   XZ=    -0.2634   YZ=     2.8456   ZZ=    26.2435
   Eigenvalues:    24.3485    27.6695    32.9803
     15  H    Isotropic =    31.1135   Anisotropy =    14.8519
   XX=    32.3778   YX=     4.2926   ZX=    -0.3185
   XY=     4.8196   YY=    38.5762   ZY=     0.4192
   XZ=    -0.1829   YZ=     1.4665   ZZ=    22.3866
   Eigenvalues:    22.3019    30.0239    41.0148
 End of Minotr F.D. properties file   721 does not exist.
 End of Minotr F.D. properties file   722 does not exist.
 End of Minotr F.D. properties file   788 does not exist.

 **********************************************************************

            Population analysis using the SCF Density.

 **********************************************************************

 Orbital symmetries:
       Occupied  (A) (A) (A) (A) (A) (A) (A) (A) (A) (A) (A) (A)
                 (A) (A) (A) (A) (A) (A) (A) (A) (A) (A) (A) (A)
                 (A) (A) (A)
       Virtual   (A) (A) (A) (A) (A) (A) (A) (A) (A) (A) (A) (A)
                 (A) (A) (A) (A) (A) (A) (A) (A) (A) (A) (A) (A)
                 (A) (A) (A) (A) (A) (A) (A) (A) (A) (A) (A) (A)
                 (A) (A) (A) (A) (A) (A) (A) (A) (A) (A) (A) (A)
                 (A) (A) (A) (A) (A) (A) (A) (A) (A) (A) (A) (A)
                 (A) (A) (A) (A) (A) (A) (A) (A) (A) (A) (A) (A)
                 (A) (A) (A) (A) (A) (A) (A) (A) (A) (A) (A) (A)
                 (A) (A) (A) (A) (A) (A) (A) (A) (A) (A) (A) (A)
                 (A) (A) (A) (A) (A) (A) (A) (A) (A) (A) (A) (A)
                 (A) (A) (A) (A) (A) (A) (A) (A) (A) (A) (A) (A)
                 (A) (A) (A) (A) (A) (A) (A) (A) (A) (A) (A) (A)
                 (A) (A) (A) (A) (A) (A) (A) (A) (A) (A) (A) (A)
                 (A) (A) (A) (A) (A) (A) (A) (A) (A) (A) (A) (A)
                 (A) (A) (A) (A) (A) (A) (A) (A) (A) (A) (A) (A)
                 (A) (A) (A) (A) (A) (A) (A) (A) (A) (A) (A) (A)
                 (A) (A) (A) (A) (A) (A) (A) (A) (A) (A) (A) (A)
                 (A) (A) (A) (A) (A) (A) (A) (A) (A) (A) (A) (A)
                 (A) (A) (A) (A) (A) (A)
 The electronic state is 1-A.
 Alpha  occ. eigenvalues --  -19.17487 -14.42156 -14.39718 -10.33266 -10.28250
 Alpha  occ. eigenvalues --  -10.27506 -10.26826  -1.06730  -0.97837  -0.93331
 Alpha  occ. eigenvalues --   -0.79345  -0.72051  -0.67140  -0.58688  -0.54023
 Alpha  occ. eigenvalues --   -0.51728  -0.50605  -0.47950  -0.46934  -0.43571
 Alpha  occ. eigenvalues --   -0.42665  -0.39613  -0.38406  -0.37002  -0.27762
 Alpha  occ. eigenvalues --   -0.26833  -0.25400
 Alpha virt. eigenvalues --   -0.00654   0.00948   0.02365   0.02433   0.02871
 Alpha virt. eigenvalues --    0.04879   0.05146   0.06227   0.06769   0.07482
 Alpha virt. eigenvalues --    0.09563   0.09700   0.10565   0.11189   0.11839
 Alpha virt. eigenvalues --    0.13358   0.14500   0.15664   0.15899   0.17780
 Alpha virt. eigenvalues --    0.18651   0.18762   0.19697   0.20571   0.21092
 Alpha virt. eigenvalues --    0.22514   0.23062   0.23858   0.24093   0.25570
 Alpha virt. eigenvalues --    0.26082   0.26685   0.27457   0.27841   0.28734
 Alpha virt. eigenvalues --    0.29600   0.30037   0.32058   0.33667   0.34519
 Alpha virt. eigenvalues --    0.34844   0.37989   0.41167   0.42755   0.45728
 Alpha virt. eigenvalues --    0.46188   0.48223   0.49499   0.52592   0.53888
 Alpha virt. eigenvalues --    0.56161   0.57686   0.59550   0.61430   0.63075
 Alpha virt. eigenvalues --    0.64239   0.64663   0.66184   0.68024   0.68592
 Alpha virt. eigenvalues --    0.69306   0.69940   0.71102   0.71948   0.74140
 Alpha virt. eigenvalues --    0.76154   0.77806   0.79226   0.79483   0.82603
 Alpha virt. eigenvalues --    0.84840   0.86564   0.89097   0.92343   0.94490
 Alpha virt. eigenvalues --    0.94962   0.99313   1.00567   1.03891   1.04752
 Alpha virt. eigenvalues --    1.08339   1.09890   1.12798   1.15889   1.16356
 Alpha virt. eigenvalues --    1.17828   1.19131   1.20087   1.23211   1.24666
 Alpha virt. eigenvalues --    1.25343   1.26374   1.29097   1.33187   1.34556
 Alpha virt. eigenvalues --    1.36677   1.38807   1.42144   1.45653   1.48449
 Alpha virt. eigenvalues --    1.50685   1.51677   1.54306   1.59684   1.66503
 Alpha virt. eigenvalues --    1.69254   1.71924   1.74675   1.75629   1.80294
 Alpha virt. eigenvalues --    1.82197   1.83568   1.84828   1.87519   1.89819
 Alpha virt. eigenvalues --    1.94125   1.97912   2.00231   2.01929   2.06610
 Alpha virt. eigenvalues --    2.09367   2.13702   2.17856   2.19421   2.22996
 Alpha virt. eigenvalues --    2.25555   2.29504   2.32598   2.34239   2.36904
 Alpha virt. eigenvalues --    2.41736   2.43783   2.47688   2.51658   2.53390
 Alpha virt. eigenvalues --    2.59400   2.61469   2.68338   2.75506   2.77409
 Alpha virt. eigenvalues --    2.77962   2.81239   2.83113   2.84915   2.86407
 Alpha virt. eigenvalues --    2.90724   2.93997   3.01811   3.10054   3.14477
 Alpha virt. eigenvalues --    3.28605   3.32238   3.35801   3.38953   3.40272
 Alpha virt. eigenvalues --    3.42444   3.44266   3.45524   3.46834   3.51644
 Alpha virt. eigenvalues --    3.53810   3.54563   3.56323   3.58962   3.62394
 Alpha virt. eigenvalues --    3.63298   3.63602   3.65986   3.70584   3.74289
 Alpha virt. eigenvalues --    3.75223   3.78666   3.89943   3.98293   4.01715
 Alpha virt. eigenvalues --    4.21433   4.22559   4.24853   4.30357   4.36780
 Alpha virt. eigenvalues --    4.54598   4.93932   5.00632   5.03617   5.07537
 Alpha virt. eigenvalues --    5.11631   5.14113   5.15426   5.17093   5.20611
 Alpha virt. eigenvalues --    5.26166   5.27266   5.37012   5.43783   5.43894
 Alpha virt. eigenvalues --    5.45663   5.75877   6.16616   6.89091   6.92508
 Alpha virt. eigenvalues --    7.12355   7.29345   7.33299  24.01411  24.08694
 Alpha virt. eigenvalues --   24.13760  24.19544  35.71598  35.74748  50.16998
          Condensed to atoms (all electrons):
               1          2          3          4          5          6
     1  O    8.247708   0.313173  -0.038363   0.012173   0.000881   0.009458
     2  C    0.313173   5.146932   0.363613  -0.162535   0.143292  -0.001586
     3  N   -0.038363   0.363613   6.578746   0.164196   0.011940   0.010757
     4  C    0.012173  -0.162535   0.164196   5.514771  -0.233835   0.038005
     5  C    0.000881   0.143292   0.011940  -0.233835   5.686873   0.141605
     6  N    0.009458  -0.001586   0.010757   0.038005   0.141605   6.758881
     7  C   -0.060209  -0.041224  -0.052384   0.157110  -0.399646   0.254824
     8  H    0.017466  -0.054051   0.392073  -0.036849   0.009262  -0.002400
     9  H    0.001426  -0.013311  -0.051778   0.431094  -0.019163  -0.013574
    10  H   -0.000167   0.001241  -0.048855   0.455457  -0.064152   0.012119
    11  H    0.000047   0.009547   0.000814  -0.108964   0.514560  -0.099249
    12  H    0.000029  -0.003981   0.007575  -0.041634   0.430330  -0.039125
    13  H   -0.001042  -0.066430   0.005666  -0.015214   0.011783  -0.093384
    14  H   -0.000752  -0.054153   0.004319  -0.001607   0.012055  -0.038327
    15  H   -0.001038   0.007630  -0.002689   0.010934  -0.036764   0.383433
               7          8          9         10         11         12
     1  O   -0.060209   0.017466   0.001426  -0.000167   0.000047   0.000029
     2  C   -0.041224  -0.054051  -0.013311   0.001241   0.009547  -0.003981
     3  N   -0.052384   0.392073  -0.051778  -0.048855   0.000814   0.007575
     4  C    0.157110  -0.036849   0.431094   0.455457  -0.108964  -0.041634
     5  C   -0.399646   0.009262  -0.019163  -0.064152   0.514560   0.430330
     6  N    0.254824  -0.002400  -0.013574   0.012119  -0.099249  -0.039125
     7  C    5.469470   0.010356   0.004683   0.001531  -0.009550   0.015873
     8  H    0.010356   0.407441  -0.000028  -0.006628  -0.000306  -0.000223
     9  H    0.004683  -0.000028   0.561783  -0.048017   0.007429  -0.005541
    10  H    0.001531  -0.006628  -0.048017   0.567043  -0.003133  -0.002187
    11  H   -0.009550  -0.000306   0.007429  -0.003133   0.587014  -0.036938
    12  H    0.015873  -0.000223  -0.005541  -0.002187  -0.036938   0.546485
    13  H    0.459804  -0.000486  -0.000041   0.000452   0.013098  -0.000362
    14  H    0.443182  -0.000103   0.000328   0.000017   0.000043  -0.000313
    15  H   -0.040708   0.000172  -0.000160  -0.000351  -0.001763  -0.006593
              13         14         15
     1  O   -0.001042  -0.000752  -0.001038
     2  C   -0.066430  -0.054153   0.007630
     3  N    0.005666   0.004319  -0.002689
     4  C   -0.015214  -0.001607   0.010934
     5  C    0.011783   0.012055  -0.036764
     6  N   -0.093384  -0.038327   0.383433
     7  C    0.459804   0.443182  -0.040708
     8  H   -0.000486  -0.000103   0.000172
     9  H   -0.000041   0.000328  -0.000160
    10  H    0.000452   0.000017  -0.000351
    11  H    0.013098   0.000043  -0.001763
    12  H   -0.000362  -0.000313  -0.006593
    13  H    0.572398  -0.032378  -0.005632
    14  H   -0.032378   0.511681  -0.004693
    15  H   -0.005632  -0.004693   0.458210
 Mulliken charges:
               1
     1  O   -0.500789
     2  C    0.411844
     3  N   -0.345629
     4  C   -0.183102
     5  C   -0.209021
     6  N   -0.321436
     7  C   -0.213111
     8  H    0.264304
     9  H    0.144871
    10  H    0.135633
    11  H    0.127351
    12  H    0.136604
    13  H    0.151768
    14  H    0.160703
    15  H    0.240012
 Sum of Mulliken charges =  -0.00000
 Mulliken charges with hydrogens summed into heavy atoms:
               1
     1  O   -0.500789
     2  C    0.411844
     3  N   -0.081325
     4  C    0.097401
     5  C    0.054933
     6  N   -0.081424
     7  C    0.099360
 Electronic spatial extent (au):  <R**2>=            697.6576
 Charge=             -0.0000 electrons
 Dipole moment (field-independent basis, Debye):
    X=             -4.3889    Y=              0.4884    Z=              0.7094  Tot=              4.4726
 Quadrupole moment (field-independent basis, Debye-Ang):
   XX=            -50.2497   YY=            -34.3956   ZZ=            -43.9065
   XY=              0.8183   XZ=             -1.5845   YZ=             -1.3434
 Traceless Quadrupole moment (field-independent basis, Debye-Ang):
   XX=             -7.3991   YY=              8.4550   ZZ=             -1.0559
   XY=              0.8183   XZ=             -1.5845   YZ=             -1.3434
 Octapole moment (field-independent basis, Debye-Ang**2):
  XXX=            -33.8285  YYY=              2.2810  ZZZ=              1.6058  XYY=              0.5410
  XXY=             -0.4118  XXZ=             -0.3525  XZZ=              3.2784  YZZ=              1.0912
  YYZ=             -0.5997  XYZ=              1.2274
 Hexadecapole moment (field-independent basis, Debye-Ang**3):
 XXXX=           -572.5071 YYYY=           -265.9396 ZZZZ=            -79.9560 XXXY=              9.7574
 XXXZ=             -0.2709 YYYX=             19.5081 YYYZ=              3.1092 ZZZX=             -1.9602
 ZZZY=             -4.2702 XXYY=           -125.1848 XXZZ=           -101.6085 YYZZ=            -65.8068
 XXYZ=             -0.0625 YYXZ=             -2.9825 ZZXY=             -3.0381
 N-N= 3.181178395625D+02 E-N=-1.434755694286D+03  KE= 3.406387607002D+02
 Unable to Open any file for archive entry.
 1\1\GINC-NODE07\SP\RmPW1PW91\6-311+G(2d,p)\C4H8N2O1\LILIANAC\08-Nov-20
 22\0\\# nmr=GIAO mpw1pw91/6-311+G(2d,p)\\am52_a_NMR\\0,1\O,0,2.339059,
 0.032321,0.031829\C,0,1.120964,0.0275,0.008216\N,0,0.387306,1.167518,-
 0.002824\C,0,-1.058637,1.252551,-0.14627\C,0,-1.695192,-0.043697,0.316
 851\N,0,-1.036047,-1.135044,-0.381602\C,0,0.341333,-1.276186,0.065888\
 H,0,0.926091,2.016727,-0.081282\H,0,-1.325574,1.434961,-1.193271\H,0,-
 1.421525,2.091419,0.453252\H,0,-1.60792,-0.126253,1.414655\H,0,-2.7568
 11,-0.036234,0.061478\H,0,0.425168,-1.63172,1.108123\H,0,0.8698,-1.991
 643,-0.565626\H,0,-1.531322,-2.004165,-0.229093\\Version=AS64L-G16RevC
 .01\State=1-A\HF=-341.9981513\RMSD=5.625e-09\Dipole=-1.7267163,0.19213
 79,0.2790798\Quadrupole=-5.5010632,6.2860622,-0.784999,0.6083868,-1.17
 80631,-0.9987763\PG=C01 [X(C4H8N2O1)]\\@
 The archive entry for this job was punched.


 CLIMB THE MOUNTAINS AND GET THEIR GOOD TIDINGS.
 NATURE'S PEACE WILL FLOW INTO YOU AS SUNSHINE FLOWS INTO TREES.
 THE WINDS WILL BLOW THEIR OWN FRESHNESS INTO YOU, 
 AND CARES WILL DROP OFF LIKE AUTUMN LEAVES.

                                         -- JOHN MUIR
 Job cpu time:       0 days  0 hours  4 minutes 17.6 seconds.
 Elapsed time:       0 days  0 hours  0 minutes 23.9 seconds.
 File lengths (MBytes):  RWF=     37 Int=      0 D2E=      0 Chk=      6 Scr=      1
 Normal termination of Gaussian 16 at Tue Nov  8 11:54:42 2022.
