Job Start Time: Sun May  1 08:33:57 MDT 2022
SLURM Job ID: 23986
SLURM Job Name: az_pp02_NBO
 Entering Gaussian System, Link 0=/opt/apps/Gaussian/G16C/g16/g16
 Initial command:
 /opt/apps/Gaussian/G16C/g16/l1.exe "/tmp/Gau-1440818.inp" -scrdir="/tmp/"
 Entering Link 1 = /opt/apps/Gaussian/G16C/g16/l1.exe PID=   1440819.
  
 Copyright (c) 1988-2019, Gaussian, Inc.  All Rights Reserved.
  
 This is part of the Gaussian(R) 16 program.  It is based on
 the Gaussian(R) 09 system (copyright 2009, Gaussian, Inc.),
 the Gaussian(R) 03 system (copyright 2003, Gaussian, Inc.),
 the Gaussian(R) 98 system (copyright 1998, Gaussian, Inc.),
 the Gaussian(R) 94 system (copyright 1995, Gaussian, Inc.),
 the Gaussian 92(TM) system (copyright 1992, Gaussian, Inc.),
 the Gaussian 90(TM) system (copyright 1990, Gaussian, Inc.),
 the Gaussian 88(TM) system (copyright 1988, Gaussian, Inc.),
 the Gaussian 86(TM) system (copyright 1986, Carnegie Mellon
 University), and the Gaussian 82(TM) system (copyright 1983,
 Carnegie Mellon University). Gaussian is a federally registered
 trademark of Gaussian, Inc.
  
 This software contains proprietary and confidential information,
 including trade secrets, belonging to Gaussian, Inc.
  
 This software is provided under written license and may be
 used, copied, transmitted, or stored only in accord with that
 written license.
  
 The following legend is applicable only to US Government
 contracts under FAR:
  
                    RESTRICTED RIGHTS LEGEND
  
 Use, reproduction and disclosure by the US Government is
 subject to restrictions as set forth in subparagraphs (a)
 and (c) of the Commercial Computer Software - Restricted
 Rights clause in FAR 52.227-19.
  
 Gaussian, Inc.
 340 Quinnipiac St., Bldg. 40, Wallingford CT 06492
  
  
 ---------------------------------------------------------------
 Warning -- This program may not be used in any manner that
 competes with the business of Gaussian, Inc. or will provide
 assistance to any competitor of Gaussian, Inc.  The licensee
 of this program is prohibited from giving any competitor of
 Gaussian, Inc. access to this program.  By using this program,
 the user acknowledges that Gaussian, Inc. is engaged in the
 business of creating and licensing software in the field of
 computational chemistry and represents and warrants to the
 licensee that it is not a competitor of Gaussian, Inc. and that
 it will not use this program in any manner prohibited above.
 ---------------------------------------------------------------
  

 Cite this work as:
 Gaussian 16, Revision C.01,
 M. J. Frisch, G. W. Trucks, H. B. Schlegel, G. E. Scuseria, 
 M. A. Robb, J. R. Cheeseman, G. Scalmani, V. Barone, 
 G. A. Petersson, H. Nakatsuji, X. Li, M. Caricato, A. V. Marenich, 
 J. Bloino, B. G. Janesko, R. Gomperts, B. Mennucci, H. P. Hratchian, 
 J. V. Ortiz, A. F. Izmaylov, J. L. Sonnenberg, D. Williams-Young, 
 F. Ding, F. Lipparini, F. Egidi, J. Goings, B. Peng, A. Petrone, 
 T. Henderson, D. Ranasinghe, V. G. Zakrzewski, J. Gao, N. Rega, 
 G. Zheng, W. Liang, M. Hada, M. Ehara, K. Toyota, R. Fukuda, 
 J. Hasegawa, M. Ishida, T. Nakajima, Y. Honda, O. Kitao, H. Nakai, 
 T. Vreven, K. Throssell, J. A. Montgomery, Jr., J. E. Peralta, 
 F. Ogliaro, M. J. Bearpark, J. J. Heyd, E. N. Brothers, K. N. Kudin, 
 V. N. Staroverov, T. A. Keith, R. Kobayashi, J. Normand, 
 K. Raghavachari, A. P. Rendell, J. C. Burant, S. S. Iyengar, 
 J. Tomasi, M. Cossi, J. M. Millam, M. Klene, C. Adamo, R. Cammi, 
 J. W. Ochterski, R. L. Martin, K. Morokuma, O. Farkas, 
 J. B. Foresman, and D. J. Fox, Gaussian, Inc., Wallingford CT, 2019.
 
 ******************************************
 Gaussian 16:  AS64L-G16RevC.01  3-Jul-2019
                 1-May-2022 
 ******************************************
 %mem=24GB
 %nprocshared=2
 Will use up to    2 processors via shared memory.
 ------------------------------------------------------------------
 # wb97xd/genecp pop=(nbo6read,savenbos) scrf=(solvent=toluene,smd)
 ------------------------------------------------------------------
 1/38=1,163=2,172=1/1;
 2/12=2,17=6,18=5,40=1/2;
 3/5=7,11=2,16=1,17=8,25=1,30=1,70=32201,72=13,74=-58/1,2,3;
 4//1;
 5/5=2,38=5,53=13/2;
 6/7=2,8=2,9=2,10=2,28=1,40=2,73=1,113=1,114=1,124=2103,126=1/1,12;
 99/5=1,9=1/99;
 -----------
 az_pp02_NBO
 -----------
 Symbolic Z-matrix:
 Charge =  0 Multiplicity = 1
 P                     1.62793  -0.71413   0.2491 
 Pd                   -0.08911  -2.23577   0.01346 
 P                    -1.67689  -0.58522  -0.24924 
 Cl                    1.52356  -3.97656  -0.31368 
 Cl                   -1.84793  -3.82196   0.36635 
 C                     1.07709   0.74042   1.2461 
 C                     2.99199  -1.43206   1.22903 
 C                     2.34032  -0.08126  -1.2948 
 C                     0.24784   1.71318   0.71727 
 C                     1.38207   0.76183   2.63159 
 C                     4.33026  -1.18181   0.93863 
 C                     2.66603  -2.25554   2.3104 
 C                     3.20046   1.01835  -1.30033 
 C                     2.01491  -0.71299  -2.49384 
 C                    -0.11338   1.72315  -0.73214 
 C                    -0.28731   2.73669   1.56064 
 C                     0.85055   1.70985   3.45561 
 C                     5.33047  -1.733     1.73276 
 C                     3.66498  -2.79554   3.10427 
 C                     3.7303    1.47902  -2.49608 
 C                     2.54199  -0.24323  -3.68985 
 C                    -1.01382   0.81346  -1.25688 
 C                     0.49768   2.69903  -1.58024 
 C                    -1.12708   3.76811   1.06153 
 C                    -0.00175   2.71671   2.94928 
 C                     5.00091  -2.53284   2.8176 
 C                     3.39722   0.85149  -3.69156 
 C                    -1.31481   0.84989  -2.64284 
 C                     1.41058   3.66853  -1.08538 
 C                     0.21346   2.69238  -2.9692 
 C                    -1.64995   4.71531   1.89803 
 C                    -0.57042   3.7023    3.7947 
 C                    -0.71154   1.74973  -3.4714 
 C                     2.00313   4.56969  -1.92632 
 C                     0.85464   3.62814  -3.81934 
 C                    -1.37547   4.68127   3.28254 
 C                     1.7288    4.54812  -3.31116 
 C                    -3.08598  -1.21504  -1.22609 
 C                    -2.34335   0.11826   1.28454 
 C                    -2.81391  -2.05446  -2.31024 
 C                    -4.40656  -0.89643  -0.92285 
 C                    -2.04964  -0.50731   2.49499 
 C                    -3.13205   1.27024   1.27158 
 C                    -3.84656  -2.54146  -3.09481 
 C                    -5.44143  -1.39459  -1.70776 
 C                    -2.5369    0.02024   3.68369 
 C                    -3.62345   1.78818   2.46025 
 C                    -5.16436  -2.20971  -2.79574 
 C                    -3.32138   1.1666    3.66697 
 H                     2.04467   0.01701   3.05099 
 H                     4.6085   -0.58032   0.08199 
 H                     1.6287   -2.495     2.5204 
 H                     3.43645   1.53154  -0.3737 
 H                     1.35227  -1.57192  -2.48915 
 H                     1.08581   1.69915   4.51523 
 H                     6.37053  -1.54131   1.49151 
 H                     3.39975  -3.44034   3.93483 
 H                     4.3877    2.34123  -2.49653 
 H                     2.28146  -0.7355   -4.62035 
 H                    -1.36243   3.80146   0.00495 
 H                     5.78344  -2.9666    3.43127 
 H                     3.80398   1.22061  -4.6271 
 H                    -2.03177   0.15541  -3.059 
 H                     1.64623   3.6905   -0.02855 
 H                    -2.2881    5.4953    1.49628 
 H                    -0.35075   3.66728   4.85734 
 H                    -0.94529   1.75046  -4.5314 
 H                     2.6964    5.30294  -1.52783 
 H                     0.63386   3.60325  -4.882 
 H                    -1.80387   5.43404   3.9358 
 H                     2.21199   5.26395  -3.96768 
 H                    -1.79295  -2.35026  -2.52804 
 H                    -4.64527  -0.28311  -0.06276 
 H                    -1.44111  -1.40527   2.50501 
 H                    -3.34252   1.77779   0.33571 
 H                    -3.62283  -3.19963  -3.9271 
 H                    -6.46782  -1.15003  -1.45606 
 H                    -2.30036  -0.46727   4.62307 
 H                    -4.22549   2.68977   2.44623 
 H                    -5.97412  -2.60235  -3.40166 
 H                    -3.69719   1.58033   4.59675 
 
 Stoichiometry    C44H32Cl2P2Pd
 Framework group  C1[X(C44H32Cl2P2Pd)]
 Deg. of freedom   237
 Full point group                 C1      NOp   1
 Largest Abelian subgroup         C1      NOp   1
 Largest concise Abelian subgroup C1      NOp   1
                         Standard orientation:                         
 ---------------------------------------------------------------------
 Center     Atomic      Atomic             Coordinates (Angstroms)
 Number     Number       Type             X           Y           Z
 ---------------------------------------------------------------------
      1         15           0       -1.627933   -0.714127   -0.249100
      2         46           0        0.089108   -2.235772   -0.013457
      3         15           0        1.676885   -0.585214    0.249237
      4         17           0       -1.523562   -3.976556    0.313677
      5         17           0        1.847927   -3.821958   -0.366352
      6          6           0       -1.077088    0.740414   -1.246103
      7          6           0       -2.991991   -1.432062   -1.229029
      8          6           0       -2.340323   -0.081258    1.294799
      9          6           0       -0.247840    1.713177   -0.717272
     10          6           0       -1.382071    0.761831   -2.631588
     11          6           0       -4.330257   -1.181813   -0.938626
     12          6           0       -2.666027   -2.255544   -2.310401
     13          6           0       -3.200463    1.018349    1.300325
     14          6           0       -2.014915   -0.712994    2.493843
     15          6           0        0.113379    1.723145    0.732141
     16          6           0        0.287305    2.736686   -1.560640
     17          6           0       -0.850555    1.709854   -3.455608
     18          6           0       -5.330464   -1.733003   -1.732758
     19          6           0       -3.664977   -2.795542   -3.104274
     20          6           0       -3.730303    1.479022    2.496083
     21          6           0       -2.541986   -0.243230    3.689845
     22          6           0        1.013817    0.813460    1.256880
     23          6           0       -0.497679    2.699031    1.580235
     24          6           0        1.127073    3.768114   -1.061526
     25          6           0        0.001751    2.716708   -2.949275
     26          6           0       -5.000907   -2.532845   -2.817603
     27          6           0       -3.397224    0.851490    3.691557
     28          6           0        1.314805    0.849886    2.642838
     29          6           0       -1.410580    3.668526    1.085376
     30          6           0       -0.213456    2.692377    2.969204
     31          6           0        1.649950    4.715307   -1.898034
     32          6           0        0.570421    3.702304   -3.794704
     33          6           0        0.711536    1.749733    3.471395
     34          6           0       -2.003137    4.569687    1.926324
     35          6           0       -0.854638    3.628144    3.819335
     36          6           0        1.375471    4.681269   -3.282537
     37          6           0       -1.728798    4.548119    3.311160
     38          6           0        3.085977   -1.215035    1.226087
     39          6           0        2.343347    0.118257   -1.284538
     40          6           0        2.813909   -2.054464    2.310239
     41          6           0        4.406563   -0.896423    0.922846
     42          6           0        2.049642   -0.507308   -2.494992
     43          6           0        3.132053    1.270241   -1.271585
     44          6           0        3.846564   -2.541455    3.094809
     45          6           0        5.441434   -1.394588    1.707755
     46          6           0        2.536895    0.020243   -3.683691
     47          6           0        3.623448    1.788177   -2.460245
     48          6           0        5.164360   -2.209710    2.795737
     49          6           0        3.321383    1.166604   -3.666967
     50          1           0       -2.044674    0.017004   -3.050992
     51          1           0       -4.608495   -0.580322   -0.081986
     52          1           0       -1.628695   -2.495004   -2.520401
     53          1           0       -3.436453    1.531535    0.373701
     54          1           0       -1.352264   -1.571920    2.489153
     55          1           0       -1.085812    1.699151   -4.515232
     56          1           0       -6.370533   -1.541309   -1.491505
     57          1           0       -3.399745   -3.440345   -3.934827
     58          1           0       -4.387704    2.341223    2.496527
     59          1           0       -2.281462   -0.735497    4.620349
     60          1           0        1.362432    3.801458   -0.004951
     61          1           0       -5.783434   -2.966600   -3.431269
     62          1           0       -3.803982    1.220604    4.627095
     63          1           0        2.031770    0.155406    3.058996
     64          1           0       -1.646235    3.690494    0.028551
     65          1           0        2.288095    5.495300   -1.496279
     66          1           0        0.350751    3.667279   -4.857342
     67          1           0        0.945293    1.750464    4.531399
     68          1           0       -2.696406    5.302938    1.527828
     69          1           0       -0.633863    3.603247    4.882004
     70          1           0        1.803869    5.434038   -3.935804
     71          1           0       -2.211998    5.263948    3.967678
     72          1           0        1.792947   -2.350262    2.528036
     73          1           0        4.645275   -0.283107    0.062760
     74          1           0        1.441114   -1.405267   -2.505007
     75          1           0        3.342519    1.777796   -0.335711
     76          1           0        3.622836   -3.199626    3.927098
     77          1           0        6.467818   -1.150026    1.456058
     78          1           0        2.300356   -0.467272   -4.623069
     79          1           0        4.225488    2.689770   -2.446227
     80          1           0        5.974122   -2.602348    3.401661
     81          1           0        3.697190    1.580335   -4.596752
 ---------------------------------------------------------------------
 Rotational constants (GHZ):           0.0609567           0.0608491           0.0531134
 General basis read from cards:  (5D, 7F)
 ======================================================================================================
                                       Pseudopotential Parameters
 ======================================================================================================
  Center     Atomic      Valence      Angular      Power
  Number     Number     Electrons     Momentum     of R      Exponent        Coefficient   SO-Coeffient
 ======================================================================================================
    1         15
                                   No pseudopotential on this center.
    2         46           18
                                      F and up 
                                                     0      598.3336444       -0.05631770    0.00000000
                                                     1      162.4298290      -20.12880360    0.00000000
                                                     2       51.5714771     -105.81979230    0.00000000
                                                     2       16.4888260      -42.57333450    0.00000000
                                                     2        5.8287656       -3.61650860    0.00000000
                                      S - F
                                                     0       73.3806304        3.00036510    0.00000000
                                                     1       14.7550438       32.43500930    0.00000000
                                                     2       17.8350204      459.08303830    0.00000000
                                                     2       12.7111477     -868.06290290    0.00000000
                                                     2        9.3292063      514.47260980    0.00000000
                                      P - F
                                                     0       55.6689877        4.95930990    0.00000000
                                                     1       64.2337771       21.17110290    0.00000000
                                                     2       17.6254952      605.05600920    0.00000000
                                                     2       11.9058155     -726.96418460    0.00000000
                                                     2        8.5100832      396.32748830    0.00000000
                                      D - F
                                                     0       49.9994728        3.05087450    0.00000000
                                                     1       39.7477547       22.25065800    0.00000000
                                                     2       11.4321366      674.83576980    0.00000000
                                                     2        9.1790080    -1040.85540480    0.00000000
                                                     2        7.5624429      505.93751470    0.00000000
    3         15
                                   No pseudopotential on this center.
    4         17
                                   No pseudopotential on this center.
    5         17
                                   No pseudopotential on this center.
    6          6
                                   No pseudopotential on this center.
    7          6
                                   No pseudopotential on this center.
    8          6
                                   No pseudopotential on this center.
    9          6
                                   No pseudopotential on this center.
   10          6
                                   No pseudopotential on this center.
   11          6
                                   No pseudopotential on this center.
   12          6
                                   No pseudopotential on this center.
   13          6
                                   No pseudopotential on this center.
   14          6
                                   No pseudopotential on this center.
   15          6
                                   No pseudopotential on this center.
   16          6
                                   No pseudopotential on this center.
   17          6
                                   No pseudopotential on this center.
   18          6
                                   No pseudopotential on this center.
   19          6
                                   No pseudopotential on this center.
   20          6
                                   No pseudopotential on this center.
   21          6
                                   No pseudopotential on this center.
   22          6
                                   No pseudopotential on this center.
   23          6
                                   No pseudopotential on this center.
   24          6
                                   No pseudopotential on this center.
   25          6
                                   No pseudopotential on this center.
   26          6
                                   No pseudopotential on this center.
   27          6
                                   No pseudopotential on this center.
   28          6
                                   No pseudopotential on this center.
   29          6
                                   No pseudopotential on this center.
   30          6
                                   No pseudopotential on this center.
   31          6
                                   No pseudopotential on this center.
   32          6
                                   No pseudopotential on this center.
   33          6
                                   No pseudopotential on this center.
   34          6
                                   No pseudopotential on this center.
   35          6
                                   No pseudopotential on this center.
   36          6
                                   No pseudopotential on this center.
   37          6
                                   No pseudopotential on this center.
   38          6
                                   No pseudopotential on this center.
   39          6
                                   No pseudopotential on this center.
   40          6
                                   No pseudopotential on this center.
   41          6
                                   No pseudopotential on this center.
   42          6
                                   No pseudopotential on this center.
   43          6
                                   No pseudopotential on this center.
   44          6
                                   No pseudopotential on this center.
   45          6
                                   No pseudopotential on this center.
   46          6
                                   No pseudopotential on this center.
   47          6
                                   No pseudopotential on this center.
   48          6
                                   No pseudopotential on this center.
   49          6
                                   No pseudopotential on this center.
   50          1
                                   No pseudopotential on this center.
   51          1
                                   No pseudopotential on this center.
   52          1
                                   No pseudopotential on this center.
   53          1
                                   No pseudopotential on this center.
   54          1
                                   No pseudopotential on this center.
   55          1
                                   No pseudopotential on this center.
   56          1
                                   No pseudopotential on this center.
   57          1
                                   No pseudopotential on this center.
   58          1
                                   No pseudopotential on this center.
   59          1
                                   No pseudopotential on this center.
   60          1
                                   No pseudopotential on this center.
   61          1
                                   No pseudopotential on this center.
   62          1
                                   No pseudopotential on this center.
   63          1
                                   No pseudopotential on this center.
   64          1
                                   No pseudopotential on this center.
   65          1
                                   No pseudopotential on this center.
   66          1
                                   No pseudopotential on this center.
   67          1
                                   No pseudopotential on this center.
   68          1
                                   No pseudopotential on this center.
   69          1
                                   No pseudopotential on this center.
   70          1
                                   No pseudopotential on this center.
   71          1
                                   No pseudopotential on this center.
   72          1
                                   No pseudopotential on this center.
   73          1
                                   No pseudopotential on this center.
   74          1
                                   No pseudopotential on this center.
   75          1
                                   No pseudopotential on this center.
   76          1
                                   No pseudopotential on this center.
   77          1
                                   No pseudopotential on this center.
   78          1
                                   No pseudopotential on this center.
   79          1
                                   No pseudopotential on this center.
   80          1
                                   No pseudopotential on this center.
   81          1
                                   No pseudopotential on this center.
 ======================================================================================================
 There are  1074 symmetry adapted cartesian basis functions of A   symmetry.
 There are  1021 symmetry adapted basis functions of A   symmetry.
  1021 basis functions,  1817 primitive gaussians,  1074 cartesian basis functions
   189 alpha electrons      189 beta electrons
       nuclear repulsion energy      7996.2915722675 Hartrees.
 NAtoms=   81 NActive=   81 NUniq=   81 SFac= 1.00D+00 NAtFMM=   60 NAOKFM=T Big=T
 Integral buffers will be    131072 words long.
 Raffenetti 2 integral format.
 Two-electron integral symmetry is turned on.
 Nuclear repulsion after empirical dispersion term =     7996.1804481690 Hartrees.
 ------------------------------------------------------------------------------
 Polarizable Continuum Model (PCM)
 =================================
 Model                : PCM.
 Atomic radii         : SMD-Coulomb.
 Polarization charges : Total charges.
 Charge compensation  : None.
 Solution method      : On-the-fly selection.
 Cavity type          : VdW (van der Waals Surface) (Alpha=1.000).
 Cavity algorithm     : GePol (No added spheres)
                        Default sphere list used, NSphG=   81.
                        Lebedev-Laikov grids with approx.  5.0 points / Ang**2.
                        Smoothing algorithm: York/Karplus (Gamma=1.0000).
                        Polarization charges: spherical gaussians, with
                                              point-specific exponents (IZeta= 3).
                        Self-potential: point-specific (ISelfS= 7).
                        Self-field    : sphere-specific E.n sum rule (ISelfD= 2).
 Solvent              : Toluene, Eps=   2.374100 Eps(inf)=   2.238315
 ------------------------------------------------------------------------------
 ------------------------------------------------------------------------------
 Atomic radii for non-electrostatic terms: SMD-CDS.
 ------------------------------------------------------------------------------
 Nuclear repulsion after PCM non-electrostatic terms =     7996.1535680926 Hartrees.
 One-electron integrals computed using PRISM.
   1 Symmetry operations used in ECPInt.
 ECPInt:  NShTT=   69751 NPrTT=  321409 LenC2=   53161 LenP2D=  135469.
 LDataN:  DoStor=T MaxTD1= 6 Len=  172
 NBasis=  1021 RedAO= T EigKep=  6.92D-05  NBF=  1021
 NBsUse=  1021 1.00D-06 EigRej= -1.00D+00 NBFU=  1021
 Defaulting to unpruned grid for atomic number  46.
 ExpMin= 2.62D-02 ExpMax= 1.06D+05 ExpMxC= 3.62D+03 IAcc=3 IRadAn=         5 AccDes= 0.00D+00
 Harris functional with IExCor= 4639 and IRadAn=       5 diagonalized for initial guess.
 HarFok:  IExCor= 4639 AccDes= 0.00D+00 IRadAn=         5 IDoV= 1 UseB2=F ITyADJ=14
 ICtDFT=  3500011 ScaDFX=  1.000000  1.000000  1.000000  1.000000
 Defaulting to unpruned grid for atomic number  46.
 FoFCou: FMM=F IPFlag=           0 FMFlag=      100000 FMFlg1=        2001
         NFxFlg=           0 DoJE=T BraDBF=F KetDBF=T FulRan=T
         wScrn=  0.000000 ICntrl=       500 IOpCl=  0 I1Cent=   200000004 NGrid=           0
         NMat0=    1 NMatS0=      1 NMatT0=    0 NMatD0=    1 NMtDS0=    0 NMtDT0=    0
 Petite list used in FoFCou.
 Requested convergence on RMS density matrix=1.00D-08 within 128 cycles.
 Requested convergence on MAX density matrix=1.00D-06.
 Requested convergence on             energy=1.00D-06.
 No special actions if energy rises.
 Defaulting to unpruned grid for atomic number  46.
 Defaulting to unpruned grid for atomic number  46.
 Inv3:  Mode=1 IEnd=   110098092.
 Iteration    1 A*A^-1 deviation from unit magnitude is 7.66D-15 for   6057.
 Iteration    1 A*A^-1 deviation from orthogonality  is 4.20D-15 for   6057   5932.
 Iteration    1 A^-1*A deviation from unit magnitude is 7.33D-15 for   6057.
 Iteration    1 A^-1*A deviation from orthogonality  is 7.08D-13 for   2054   2010.
 EnCoef did     5 forward-backward iterations
 Error on total polarization charges =  0.05021
 SCF Done:  E(RwB97XD) =  -3425.81154702     A.U. after   19 cycles
            NFock= 19  Conv=0.43D-08     -V/T= 2.0272
 SMD-CDS (non-electrostatic) energy       (kcal/mol) =     -16.87
 (included in total energy above)

 **********************************************************************

            Population analysis using the SCF Density.

 **********************************************************************

 Orbital symmetries:
       Occupied  (A) (A) (A) (A) (A) (A) (A) (A) (A) (A) (A) (A)
                 (A) (A) (A) (A) (A) (A) (A) (A) (A) (A) (A) (A)
                 (A) (A) (A) (A) (A) (A) (A) (A) (A) (A) (A) (A)
                 (A) (A) (A) (A) (A) (A) (A) (A) (A) (A) (A) (A)
                 (A) (A) (A) (A) (A) (A) (A) (A) (A) (A) (A) (A)
                 (A) (A) (A) (A) (A) (A) (A) (A) (A) (A) (A) (A)
                 (A) (A) (A) (A) (A) (A) (A) (A) (A) (A) (A) (A)
                 (A) (A) (A) (A) (A) (A) (A) (A) (A) (A) (A) (A)
                 (A) (A) (A) (A) (A) (A) (A) (A) (A) (A) (A) (A)
                 (A) (A) (A) (A) (A) (A) (A) (A) (A) (A) (A) (A)
                 (A) (A) (A) (A) (A) (A) (A) (A) (A) (A) (A) (A)
                 (A) (A) (A) (A) (A) (A) (A) (A) (A) (A) (A) (A)
                 (A) (A) (A) (A) (A) (A) (A) (A) (A) (A) (A) (A)
                 (A) (A) (A) (A) (A) (A) (A) (A) (A) (A) (A) (A)
                 (A) (A) (A) (A) (A) (A) (A) (A) (A) (A) (A) (A)
                 (A) (A) (A) (A) (A) (A) (A) (A) (A)
       Virtual   (A) (A) (A) (A) (A) (A) (A) (A) (A) (A) (A) (A)
                 (A) (A) (A) (A) (A) (A) (A) (A) (A) (A) (A) (A)
                 (A) (A) (A) (A) (A) (A) (A) (A) (A) (A) (A) (A)
                 (A) (A) (A) (A) (A) (A) (A) (A) (A) (A) (A) (A)
                 (A) (A) (A) (A) (A) (A) (A) (A) (A) (A) (A) (A)
                 (A) (A) (A) (A) (A) (A) (A) (A) (A) (A) (A) (A)
                 (A) (A) (A) (A) (A) (A) (A) (A) (A) (A) (A) (A)
                 (A) (A) (A) (A) (A) (A) (A) (A) (A) (A) (A) (A)
                 (A) (A) (A) (A) (A) (A) (A) (A) (A) (A) (A) (A)
                 (A) (A) (A) (A) (A) (A) (A) (A) (A) (A) (A) (A)
                 (A) (A) (A) (A) (A) (A) (A) (A) (A) (A) (A) (A)
                 (A) (A) (A) (A) (A) (A) (A) (A) (A) (A) (A) (A)
                 (A) (A) (A) (A) (A) (A) (A) (A) (A) (A) (A) (A)
                 (A) (A) (A) (A) (A) (A) (A) (A) (A) (A) (A) (A)
                 (A) (A) (A) (A) (A) (A) (A) (A) (A) (A) (A) (A)
                 (A) (A) (A) (A) (A) (A) (A) (A) (A) (A) (A) (A)
                 (A) (A) (A) (A) (A) (A) (A) (A) (A) (A) (A) (A)
                 (A) (A) (A) (A) (A) (A) (A) (A) (A) (A) (A) (A)
                 (A) (A) (A) (A) (A) (A) (A) (A) (A) (A) (A) (A)
                 (A) (A) (A) (A) (A) (A) (A) (A) (A) (A) (A) (A)
                 (A) (A) (A) (A) (A) (A) (A) (A) (A) (A) (A) (A)
                 (A) (A) (A) (A) (A) (A) (A) (A) (A) (A) (A) (A)
                 (A) (A) (A) (A) (A) (A) (A) (A) (A) (A) (A) (A)
                 (A) (A) (A) (A) (A) (A) (A) (A) (A) (A) (A) (A)
                 (A) (A) (A) (A) (A) (A) (A) (A) (A) (A) (A) (A)
                 (A) (A) (A) (A) (A) (A) (A) (A) (A) (A) (A) (A)
                 (A) (A) (A) (A) (A) (A) (A) (A) (A) (A) (A) (A)
                 (A) (A) (A) (A) (A) (A) (A) (A) (A) (A) (A) (A)
                 (A) (A) (A) (A) (A) (A) (A) (A) (A) (A) (A) (A)
                 (A) (A) (A) (A) (A) (A) (A) (A) (A) (A) (A) (A)
                 (A) (A) (A) (A) (A) (A) (A) (A) (A) (A) (A) (A)
                 (A) (A) (A) (A) (A) (A) (A) (A) (A) (A) (A) (A)
                 (A) (A) (A) (A) (A) (A) (A) (A) (A) (A) (A) (A)
                 (A) (A) (A) (A) (A) (A) (A) (A) (A) (A) (A) (A)
                 (A) (A) (A) (A) (A) (A) (A) (A) (A) (A) (A) (A)
                 (A) (A) (A) (A) (A) (A) (A) (A) (A) (A) (A) (A)
                 (A) (A) (A) (A) (A) (A) (A) (A) (A) (A) (A) (A)
                 (A) (A) (A) (A) (A) (A) (A) (A) (A) (A) (A) (A)
                 (A) (A) (A) (A) (A) (A) (A) (A) (A) (A) (A) (A)
                 (A) (A) (A) (A) (A) (A) (A) (A) (A) (A) (A) (A)
                 (A) (A) (A) (A) (A) (A) (A) (A) (A) (A) (A) (A)
                 (A) (A) (A) (A) (A) (A) (A) (A) (A) (A) (A) (A)
                 (A) (A) (A) (A) (A) (A) (A) (A) (A) (A) (A) (A)
                 (A) (A) (A) (A) (A) (A) (A) (A) (A) (A) (A) (A)
                 (A) (A) (A) (A) (A) (A) (A) (A) (A) (A) (A) (A)
                 (A) (A) (A) (A) (A) (A) (A) (A) (A) (A) (A) (A)
                 (A) (A) (A) (A) (A) (A) (A) (A) (A) (A) (A) (A)
                 (A) (A) (A) (A) (A) (A) (A) (A) (A) (A) (A) (A)
                 (A) (A) (A) (A) (A) (A) (A) (A) (A) (A) (A) (A)
                 (A) (A) (A) (A) (A) (A) (A) (A) (A) (A) (A) (A)
                 (A) (A) (A) (A) (A) (A) (A) (A) (A) (A) (A) (A)
                 (A) (A) (A) (A) (A) (A) (A) (A) (A) (A) (A) (A)
                 (A) (A) (A) (A) (A) (A) (A) (A) (A) (A) (A) (A)
                 (A) (A) (A) (A) (A) (A) (A) (A) (A) (A) (A) (A)
                 (A) (A) (A) (A) (A) (A) (A) (A) (A) (A) (A) (A)
                 (A) (A) (A) (A) (A) (A) (A) (A) (A) (A) (A) (A)
                 (A) (A) (A) (A) (A) (A) (A) (A) (A) (A) (A) (A)
                 (A) (A) (A) (A) (A) (A) (A) (A) (A) (A) (A) (A)
                 (A) (A) (A) (A) (A) (A) (A) (A) (A) (A) (A) (A)
                 (A) (A) (A) (A) (A) (A) (A) (A) (A) (A) (A) (A)
                 (A) (A) (A) (A) (A) (A) (A) (A) (A) (A) (A) (A)
                 (A) (A) (A) (A) (A) (A) (A) (A) (A) (A) (A) (A)
                 (A) (A) (A) (A) (A) (A) (A) (A) (A) (A) (A) (A)
                 (A) (A) (A) (A) (A) (A) (A) (A) (A) (A) (A) (A)
                 (A) (A) (A) (A) (A) (A) (A) (A) (A) (A) (A) (A)
                 (A) (A) (A) (A) (A) (A) (A) (A) (A) (A) (A) (A)
                 (A) (A) (A) (A) (A) (A) (A) (A) (A) (A) (A) (A)
                 (A) (A) (A) (A) (A) (A) (A) (A) (A) (A) (A) (A)
                 (A) (A) (A) (A) (A) (A) (A) (A) (A) (A) (A) (A)
                 (A) (A) (A) (A)
 The electronic state is 1-A.
 Alpha  occ. eigenvalues -- -101.62720-101.62710 -77.27012 -77.26999 -10.32496
 Alpha  occ. eigenvalues --  -10.32468 -10.32229 -10.32227 -10.31325 -10.31324
 Alpha  occ. eigenvalues --  -10.31132 -10.31129 -10.31082 -10.31081 -10.30854
 Alpha  occ. eigenvalues --  -10.30853 -10.30251 -10.30248 -10.30187 -10.30181
 Alpha  occ. eigenvalues --  -10.30093 -10.30088 -10.29944 -10.29939 -10.29904
 Alpha  occ. eigenvalues --  -10.29897 -10.29839 -10.29832 -10.29786 -10.29775
 Alpha  occ. eigenvalues --  -10.29720 -10.29720 -10.29720 -10.29709 -10.29646
 Alpha  occ. eigenvalues --  -10.29620 -10.29533 -10.29530 -10.29490 -10.29488
 Alpha  occ. eigenvalues --  -10.29328 -10.29324 -10.29210 -10.29187 -10.29012
 Alpha  occ. eigenvalues --  -10.28989 -10.28908 -10.28899  -9.49509  -9.49498
 Alpha  occ. eigenvalues --   -7.24124  -7.24111  -7.23643  -7.23633  -7.23586
 Alpha  occ. eigenvalues --   -7.23575  -6.72215  -6.72201  -4.86886  -4.86873
 Alpha  occ. eigenvalues --   -4.86861  -4.86847  -4.86670  -4.86655  -3.48161
 Alpha  occ. eigenvalues --   -2.20720  -2.20640  -2.17239  -1.01202  -0.99240
 Alpha  occ. eigenvalues --   -0.97730  -0.97659  -0.96852  -0.96824  -0.95277
 Alpha  occ. eigenvalues --   -0.94148  -0.91378  -0.88956  -0.88930  -0.87594
 Alpha  occ. eigenvalues --   -0.86051  -0.86001  -0.85960  -0.85896  -0.85515
 Alpha  occ. eigenvalues --   -0.85347  -0.85283  -0.85267  -0.84666  -0.82576
 Alpha  occ. eigenvalues --   -0.81880  -0.81169  -0.77996  -0.77035  -0.74254
 Alpha  occ. eigenvalues --   -0.72976  -0.72385  -0.71873  -0.71829  -0.71399
 Alpha  occ. eigenvalues --   -0.71226  -0.70758  -0.70712  -0.70099  -0.70060
 Alpha  occ. eigenvalues --   -0.67990  -0.67196  -0.66828  -0.63171  -0.62403
 Alpha  occ. eigenvalues --   -0.62356  -0.61802  -0.61572  -0.60716  -0.60681
 Alpha  occ. eigenvalues --   -0.59612  -0.58493  -0.58315  -0.55875  -0.55670
 Alpha  occ. eigenvalues --   -0.55510  -0.55175  -0.55078  -0.54947  -0.54731
 Alpha  occ. eigenvalues --   -0.54481  -0.54456  -0.54019  -0.53979  -0.53170
 Alpha  occ. eigenvalues --   -0.52232  -0.52133  -0.52115  -0.51898  -0.51784
 Alpha  occ. eigenvalues --   -0.51407  -0.51337  -0.51120  -0.50887  -0.50245
 Alpha  occ. eigenvalues --   -0.50065  -0.49778  -0.49597  -0.48394  -0.47819
 Alpha  occ. eigenvalues --   -0.47559  -0.47369  -0.46138  -0.45970  -0.45673
 Alpha  occ. eigenvalues --   -0.45357  -0.44932  -0.44386  -0.44200  -0.44039
 Alpha  occ. eigenvalues --   -0.43737  -0.43663  -0.43492  -0.43341  -0.43278
 Alpha  occ. eigenvalues --   -0.42703  -0.42561  -0.42220  -0.41904  -0.41292
 Alpha  occ. eigenvalues --   -0.40393  -0.39283  -0.39274  -0.38971  -0.38402
 Alpha  occ. eigenvalues --   -0.36896  -0.36592  -0.34346  -0.34294  -0.34171
 Alpha  occ. eigenvalues --   -0.34016  -0.33881  -0.33761  -0.33515  -0.33405
 Alpha  occ. eigenvalues --   -0.33283  -0.32697  -0.32580  -0.31902  -0.31035
 Alpha  occ. eigenvalues --   -0.30689  -0.30647  -0.30234  -0.29730
 Alpha virt. eigenvalues --   -0.03425   0.00061   0.00690   0.02258   0.02597
 Alpha virt. eigenvalues --    0.03209   0.03471   0.04222   0.04738   0.05198
 Alpha virt. eigenvalues --    0.05239   0.05798   0.05817   0.07195   0.08062
 Alpha virt. eigenvalues --    0.08460   0.10128   0.10672   0.11214   0.11548
 Alpha virt. eigenvalues --    0.12481   0.12803   0.13518   0.13529   0.13884
 Alpha virt. eigenvalues --    0.14288   0.14529   0.14607   0.15025   0.15311
 Alpha virt. eigenvalues --    0.15505   0.15764   0.16347   0.16804   0.16997
 Alpha virt. eigenvalues --    0.17195   0.17350   0.17383   0.18136   0.18296
 Alpha virt. eigenvalues --    0.18843   0.19023   0.19040   0.19460   0.19847
 Alpha virt. eigenvalues --    0.19895   0.20010   0.20462   0.21353   0.21366
 Alpha virt. eigenvalues --    0.21442   0.21948   0.22101   0.22673   0.22715
 Alpha virt. eigenvalues --    0.23220   0.23303   0.23602   0.23740   0.24372
 Alpha virt. eigenvalues --    0.24616   0.26241   0.26635   0.26843   0.27114
 Alpha virt. eigenvalues --    0.27197   0.27352   0.28577   0.29120   0.29526
 Alpha virt. eigenvalues --    0.30133   0.30803   0.31139   0.31381   0.32355
 Alpha virt. eigenvalues --    0.32936   0.33383   0.33518   0.34268   0.34356
 Alpha virt. eigenvalues --    0.34382   0.34592   0.34723   0.34827   0.35078
 Alpha virt. eigenvalues --    0.35273   0.35541   0.35741   0.36008   0.36082
 Alpha virt. eigenvalues --    0.36244   0.36384   0.36811   0.36917   0.37117
 Alpha virt. eigenvalues --    0.37382   0.37437   0.38252   0.38495   0.38752
 Alpha virt. eigenvalues --    0.39406   0.39797   0.39882   0.40154   0.40707
 Alpha virt. eigenvalues --    0.41300   0.41642   0.41699   0.41744   0.42420
 Alpha virt. eigenvalues --    0.42461   0.42568   0.43044   0.43105   0.43885
 Alpha virt. eigenvalues --    0.44013   0.44034   0.44765   0.45080   0.45447
 Alpha virt. eigenvalues --    0.45767   0.45820   0.46262   0.46595   0.46889
 Alpha virt. eigenvalues --    0.46963   0.47456   0.47570   0.47790   0.48309
 Alpha virt. eigenvalues --    0.48312   0.48570   0.48920   0.49084   0.49266
 Alpha virt. eigenvalues --    0.50025   0.50206   0.50348   0.50412   0.50649
 Alpha virt. eigenvalues --    0.50705   0.50886   0.51223   0.51371   0.51532
 Alpha virt. eigenvalues --    0.51748   0.52066   0.52128   0.52162   0.52726
 Alpha virt. eigenvalues --    0.52862   0.52902   0.52986   0.53183   0.53848
 Alpha virt. eigenvalues --    0.54229   0.54390   0.54908   0.55186   0.55277
 Alpha virt. eigenvalues --    0.55526   0.56207   0.56599   0.56701   0.57021
 Alpha virt. eigenvalues --    0.57334   0.57469   0.58164   0.58273   0.59069
 Alpha virt. eigenvalues --    0.59441   0.59878   0.59916   0.60253   0.60745
 Alpha virt. eigenvalues --    0.61174   0.61320   0.62168   0.62365   0.63053
 Alpha virt. eigenvalues --    0.63382   0.63687   0.63720   0.64010   0.64021
 Alpha virt. eigenvalues --    0.64846   0.64973   0.65430   0.65571   0.65682
 Alpha virt. eigenvalues --    0.65866   0.66496   0.67374   0.67419   0.67646
 Alpha virt. eigenvalues --    0.67885   0.68072   0.68196   0.68399   0.68721
 Alpha virt. eigenvalues --    0.68889   0.69002   0.69255   0.69662   0.69671
 Alpha virt. eigenvalues --    0.70355   0.70358   0.70571   0.70805   0.71093
 Alpha virt. eigenvalues --    0.71170   0.71443   0.71636   0.71675   0.72024
 Alpha virt. eigenvalues --    0.72603   0.72734   0.72834   0.72897   0.73491
 Alpha virt. eigenvalues --    0.73612   0.73715   0.73892   0.74859   0.75099
 Alpha virt. eigenvalues --    0.75229   0.75514   0.75998   0.76275   0.76316
 Alpha virt. eigenvalues --    0.76642   0.76661   0.77463   0.77639   0.77963
 Alpha virt. eigenvalues --    0.78158   0.78332   0.79094   0.79269   0.79394
 Alpha virt. eigenvalues --    0.79496   0.80366   0.80538   0.80763   0.80929
 Alpha virt. eigenvalues --    0.81643   0.81885   0.82178   0.82496   0.82933
 Alpha virt. eigenvalues --    0.83277   0.83771   0.84027   0.84114   0.84421
 Alpha virt. eigenvalues --    0.84534   0.84991   0.85172   0.85714   0.85769
 Alpha virt. eigenvalues --    0.86647   0.86666   0.86959   0.87202   0.87290
 Alpha virt. eigenvalues --    0.87737   0.88115   0.88336   0.88738   0.88864
 Alpha virt. eigenvalues --    0.88986   0.89716   0.89817   0.90527   0.90785
 Alpha virt. eigenvalues --    0.91200   0.91977   0.92236   0.92490   0.92756
 Alpha virt. eigenvalues --    0.92855   0.92963   0.93178   0.93899   0.93991
 Alpha virt. eigenvalues --    0.94510   0.94813   0.94950   0.95491   0.95980
 Alpha virt. eigenvalues --    0.96223   0.96897   0.97176   0.97284   0.97482
 Alpha virt. eigenvalues --    0.97727   0.97901   0.98358   0.98958   0.99629
 Alpha virt. eigenvalues --    0.99794   1.00767   1.01084   1.01437   1.01737
 Alpha virt. eigenvalues --    1.01804   1.02158   1.02911   1.03603   1.03665
 Alpha virt. eigenvalues --    1.04544   1.04723   1.05038   1.05128   1.05407
 Alpha virt. eigenvalues --    1.06643   1.06767   1.06967   1.07072   1.07162
 Alpha virt. eigenvalues --    1.07755   1.07785   1.08142   1.09425   1.09706
 Alpha virt. eigenvalues --    1.09822   1.10710   1.10718   1.11033   1.11408
 Alpha virt. eigenvalues --    1.11480   1.11659   1.12693   1.13122   1.13780
 Alpha virt. eigenvalues --    1.14250   1.14322   1.15019   1.15163   1.15710
 Alpha virt. eigenvalues --    1.16064   1.16239   1.16345   1.16995   1.17131
 Alpha virt. eigenvalues --    1.18001   1.18369   1.19017   1.19677   1.20929
 Alpha virt. eigenvalues --    1.21379   1.21797   1.22682   1.23164   1.23370
 Alpha virt. eigenvalues --    1.23751   1.24129   1.24286   1.24886   1.25262
 Alpha virt. eigenvalues --    1.25544   1.25792   1.26442   1.26678   1.27018
 Alpha virt. eigenvalues --    1.27277   1.28290   1.28805   1.28864   1.29423
 Alpha virt. eigenvalues --    1.29559   1.29994   1.30070   1.30136   1.30313
 Alpha virt. eigenvalues --    1.30563   1.31067   1.31988   1.32147   1.32353
 Alpha virt. eigenvalues --    1.32614   1.32747   1.33188   1.33256   1.33816
 Alpha virt. eigenvalues --    1.34507   1.34656   1.36781   1.37263   1.37624
 Alpha virt. eigenvalues --    1.38253   1.38366   1.38390   1.38746   1.39174
 Alpha virt. eigenvalues --    1.39594   1.39879   1.40931   1.41624   1.42255
 Alpha virt. eigenvalues --    1.43609   1.45597   1.46430   1.46833   1.46980
 Alpha virt. eigenvalues --    1.49452   1.49541   1.50479   1.50688   1.51964
 Alpha virt. eigenvalues --    1.53970   1.54078   1.54843   1.55922   1.55985
 Alpha virt. eigenvalues --    1.56384   1.56583   1.57193   1.57394   1.57647
 Alpha virt. eigenvalues --    1.57976   1.58502   1.59176   1.59425   1.59581
 Alpha virt. eigenvalues --    1.60604   1.60967   1.61319   1.61641   1.61839
 Alpha virt. eigenvalues --    1.62432   1.62998   1.63066   1.63534   1.64607
 Alpha virt. eigenvalues --    1.64937   1.65106   1.66105   1.67175   1.68269
 Alpha virt. eigenvalues --    1.69554   1.71808   1.72902   1.74275   1.74942
 Alpha virt. eigenvalues --    1.78417   1.78525   1.80034   1.80252   1.80911
 Alpha virt. eigenvalues --    1.81833   1.82166   1.82461   1.83057   1.83683
 Alpha virt. eigenvalues --    1.85155   1.85620   1.85757   1.85799   1.86090
 Alpha virt. eigenvalues --    1.86149   1.86319   1.86706   1.87447   1.87852
 Alpha virt. eigenvalues --    1.88301   1.88335   1.88943   1.89456   1.89951
 Alpha virt. eigenvalues --    1.90180   1.90886   1.91071   1.91204   1.91667
 Alpha virt. eigenvalues --    1.91978   1.92390   1.92488   1.92750   1.93296
 Alpha virt. eigenvalues --    1.93734   1.94407   1.95230   1.95377   1.96343
 Alpha virt. eigenvalues --    1.96724   1.97908   1.99138   1.99185   1.99292
 Alpha virt. eigenvalues --    1.99653   2.00051   2.00396   2.00756   2.00979
 Alpha virt. eigenvalues --    2.01113   2.01423   2.01743   2.01808   2.01896
 Alpha virt. eigenvalues --    2.02264   2.02439   2.02485   2.02808   2.03035
 Alpha virt. eigenvalues --    2.03217   2.03948   2.04226   2.04519   2.05191
 Alpha virt. eigenvalues --    2.05608   2.05688   2.05960   2.06288   2.06993
 Alpha virt. eigenvalues --    2.07745   2.08183   2.09259   2.09655   2.10231
 Alpha virt. eigenvalues --    2.10621   2.11051   2.11606   2.12659   2.13841
 Alpha virt. eigenvalues --    2.15963   2.16043   2.16432   2.17985   2.18701
 Alpha virt. eigenvalues --    2.20489   2.21781   2.23743   2.24622   2.25993
 Alpha virt. eigenvalues --    2.26955   2.27118   2.27428   2.30586   2.31176
 Alpha virt. eigenvalues --    2.31571   2.32513   2.32577   2.32828   2.33553
 Alpha virt. eigenvalues --    2.33590   2.34010   2.34298   2.34520   2.34781
 Alpha virt. eigenvalues --    2.35065   2.35507   2.36336   2.36383   2.36612
 Alpha virt. eigenvalues --    2.37214   2.37291   2.37686   2.38118   2.38487
 Alpha virt. eigenvalues --    2.38833   2.39067   2.39177   2.40369   2.40987
 Alpha virt. eigenvalues --    2.41005   2.41441   2.41815   2.42089   2.42576
 Alpha virt. eigenvalues --    2.42657   2.42920   2.42968   2.43600   2.44010
 Alpha virt. eigenvalues --    2.44178   2.44744   2.45409   2.45846   2.46150
 Alpha virt. eigenvalues --    2.47056   2.47114   2.48632   2.49589   2.50058
 Alpha virt. eigenvalues --    2.50418   2.50848   2.52126   2.53139   2.53831
 Alpha virt. eigenvalues --    2.54443   2.55451   2.56922   2.57407   2.59030
 Alpha virt. eigenvalues --    2.60778   2.62101   2.62405   2.65243   2.66141
 Alpha virt. eigenvalues --    2.66416   2.67531   2.67794   2.68377   2.69712
 Alpha virt. eigenvalues --    2.70143   2.70244   2.70890   2.71564   2.72542
 Alpha virt. eigenvalues --    2.72806   2.73475   2.73591   2.74038   2.74128
 Alpha virt. eigenvalues --    2.74527   2.76441   2.78395   2.81042   2.81123
 Alpha virt. eigenvalues --    2.81835   2.82004   2.82087   2.82369   2.83036
 Alpha virt. eigenvalues --    2.83173   2.83483   2.83809   2.84203   2.85630
 Alpha virt. eigenvalues --    2.86392   2.86557   2.87773   2.88577   2.89313
 Alpha virt. eigenvalues --    2.89627   2.90213   2.90277   2.91352   2.91729
 Alpha virt. eigenvalues --    2.92672   2.93271   2.93748   2.94161   2.94475
 Alpha virt. eigenvalues --    2.94746   2.97022   2.97736   2.98583   2.98779
 Alpha virt. eigenvalues --    2.98874   2.99094   3.00621   3.02008   3.02272
 Alpha virt. eigenvalues --    3.03026   3.04698   3.04977   3.05914   3.07338
 Alpha virt. eigenvalues --    3.09251   3.11963   3.14217   3.15976   3.16433
 Alpha virt. eigenvalues --    3.17331   3.17567   3.17921   3.18918   3.20776
 Alpha virt. eigenvalues --    3.22542   3.22885   3.24040   3.24940   3.24991
 Alpha virt. eigenvalues --    3.25737   3.27887   3.28044   3.29155   3.29697
 Alpha virt. eigenvalues --    3.30706   3.31211   3.32432   3.34939   3.35537
 Alpha virt. eigenvalues --    3.37085   3.37296   3.37437   3.37643   3.37937
 Alpha virt. eigenvalues --    3.38362   3.39053   3.39486   3.39602   3.40394
 Alpha virt. eigenvalues --    3.40502   3.40795   3.41104   3.41246   3.41594
 Alpha virt. eigenvalues --    3.41658   3.42012   3.43167   3.43291   3.43475
 Alpha virt. eigenvalues --    3.44379   3.44982   3.45474   3.46253   3.46725
 Alpha virt. eigenvalues --    3.47605   3.47817   3.48532   3.49628   3.51644
 Alpha virt. eigenvalues --    3.51921   3.52392   3.52593   3.54208   3.55666
 Alpha virt. eigenvalues --    3.58776   3.59756   3.61996   3.62931   3.64006
 Alpha virt. eigenvalues --    3.64128   3.65550   3.66989   3.68354   3.68684
 Alpha virt. eigenvalues --    3.70033   3.71599   3.73156   3.74452   3.76902
 Alpha virt. eigenvalues --    3.77345   3.79821   3.80507   3.83842   3.84121
 Alpha virt. eigenvalues --    3.86888   3.87471   3.96252   3.96890   3.99727
 Alpha virt. eigenvalues --    4.06160   4.07476   4.08122   4.08656   4.08913
 Alpha virt. eigenvalues --    4.10149   4.10406   4.10461   4.11344   4.17447
 Alpha virt. eigenvalues --    4.17785   4.33247   4.37180   4.54922   4.86571
 Alpha virt. eigenvalues --    4.87492   4.88907   4.88944   4.89336   4.89405
 Alpha virt. eigenvalues --    4.90548   4.91947   7.32972   7.38122   9.82567
 Alpha virt. eigenvalues --    9.84950  13.33071  14.23281  14.29380  14.31886
 Alpha virt. eigenvalues --   14.32146  14.36612  14.66656  23.33698  23.37475
 Alpha virt. eigenvalues --   23.38691  23.39894  23.40013  23.44630  23.71524
 Alpha virt. eigenvalues --   23.74455  23.90756  23.91223  23.95388  23.95591
 Alpha virt. eigenvalues --   23.96073  23.96182  23.97162  23.98075  23.99362
 Alpha virt. eigenvalues --   23.99748  23.99920  24.00360  24.05226  24.05330
 Alpha virt. eigenvalues --   24.13851  24.14132  24.14951  24.17200  24.17349
 Alpha virt. eigenvalues --   24.17352  24.17594  24.18653  24.18693  24.19026
 Alpha virt. eigenvalues --   24.19106  24.21495  24.21722  24.26594  24.27681
 Alpha virt. eigenvalues --   24.28645  24.28861  24.28901  24.29174  24.29388
 Alpha virt. eigenvalues --   24.29422  24.30231  25.79813  25.80904  25.87643
 Alpha virt. eigenvalues --   25.92994  26.16310  26.22137 163.57103 163.62756
 Alpha virt. eigenvalues --  215.90391 215.98201
          Condensed to atoms (all electrons):
 Mulliken charges:
               1
     1  P    0.868321
     2  Pd  -0.282032
     3  P    0.867808
     4  Cl  -0.450314
     5  Cl  -0.447453
     6  C   -0.250364
     7  C   -0.250682
     8  C   -0.257342
     9  C   -0.048990
    10  C   -0.241504
    11  C   -0.213024
    12  C   -0.213017
    13  C   -0.239942
    14  C   -0.188607
    15  C   -0.046526
    16  C    0.072197
    17  C   -0.208134
    18  C   -0.213746
    19  C   -0.206722
    20  C   -0.187971
    21  C   -0.218286
    22  C   -0.250806
    23  C    0.071371
    24  C   -0.262516
    25  C    0.061065
    26  C   -0.207159
    27  C   -0.203314
    28  C   -0.242198
    29  C   -0.263820
    30  C    0.060922
    31  C   -0.215301
    32  C   -0.225106
    33  C   -0.207250
    34  C   -0.215058
    35  C   -0.224359
    36  C   -0.217008
    37  C   -0.217714
    38  C   -0.250145
    39  C   -0.259652
    40  C   -0.213389
    41  C   -0.212729
    42  C   -0.186896
    43  C   -0.237353
    44  C   -0.206392
    45  C   -0.213273
    46  C   -0.219052
    47  C   -0.187842
    48  C   -0.207099
    49  C   -0.203029
    50  H    0.256830
    51  H    0.252213
    52  H    0.279726
    53  H    0.250169
    54  H    0.282522
    55  H    0.228434
    56  H    0.227372
    57  H    0.231621
    58  H    0.228260
    59  H    0.228813
    60  H    0.253879
    61  H    0.229051
    62  H    0.227092
    63  H    0.257046
    64  H    0.254206
    65  H    0.225587
    66  H    0.228491
    67  H    0.228507
    68  H    0.225800
    69  H    0.228641
    70  H    0.226748
    71  H    0.226816
    72  H    0.277760
    73  H    0.251976
    74  H    0.282750
    75  H    0.249631
    76  H    0.231388
    77  H    0.227357
    78  H    0.228606
    79  H    0.228122
    80  H    0.228951
    81  H    0.227066
 Sum of Mulliken charges =  -0.00000
 Mulliken charges with hydrogens summed into heavy atoms:
               1
     1  P    0.868321
     2  Pd  -0.282032
     3  P    0.867808
     4  Cl  -0.450314
     5  Cl  -0.447453
     6  C   -0.250364
     7  C   -0.250682
     8  C   -0.257342
     9  C   -0.048990
    10  C    0.015326
    11  C    0.039189
    12  C    0.066709
    13  C    0.010227
    14  C    0.093914
    15  C   -0.046526
    16  C    0.072197
    17  C    0.020300
    18  C    0.013626
    19  C    0.024899
    20  C    0.040288
    21  C    0.010527
    22  C   -0.250806
    23  C    0.071371
    24  C   -0.008637
    25  C    0.061065
    26  C    0.021892
    27  C    0.023778
    28  C    0.014848
    29  C   -0.009613
    30  C    0.060922
    31  C    0.010286
    32  C    0.003385
    33  C    0.021258
    34  C    0.010742
    35  C    0.004282
    36  C    0.009740
    37  C    0.009102
    38  C   -0.250145
    39  C   -0.259652
    40  C    0.064371
    41  C    0.039247
    42  C    0.095854
    43  C    0.012278
    44  C    0.024997
    45  C    0.014084
    46  C    0.009554
    47  C    0.040279
    48  C    0.021853
    49  C    0.024036
 Electronic spatial extent (au):  <R**2>=          24982.8898
 Charge=              0.0000 electrons
 Dipole moment (field-independent basis, Debye):
    X=             -0.7039    Y=             17.3150    Z=              0.1194  Tot=             17.3298
 Quadrupole moment (field-independent basis, Debye-Ang):
   XX=           -291.4484   YY=           -364.9599   ZZ=           -267.2994
   XY=              2.7600   XZ=              5.1555   YZ=             -0.4456
 Traceless Quadrupole moment (field-independent basis, Debye-Ang):
   XX=             16.4542   YY=            -57.0573   ZZ=             40.6032
   XY=              2.7600   XZ=              5.1555   YZ=             -0.4456
 Octapole moment (field-independent basis, Debye-Ang**2):
  XXX=             -0.4715  YYY=            238.3701  ZZZ=              0.2849  XYY=             -6.7911
  XXY=             10.5598  XXZ=              8.6966  XZZ=             -1.4524  YZZ=            -16.6393
  YYZ=             -7.4123  XYZ=           -126.8271
 Hexadecapole moment (field-independent basis, Debye-Ang**3):
 XXXX=         -11675.0441 YYYY=         -12792.6561 ZZZZ=          -8566.4310 XXXY=             14.5467
 XXXZ=            389.0907 YYYX=             31.7063 YYYZ=            -11.9412 ZZZX=           -137.9486
 ZZZY=             -6.3554 XXYY=          -4037.9246 XXZZ=          -3438.8674 YYZZ=          -3135.0293
 XXYZ=             13.9196 YYXZ=            -31.6500 ZZXY=             -6.1729
 N-N= 7.996153568093D+03 E-N=-2.401113568945D+04  KE= 3.335031857994D+03
 Running external command "gaunbo6 R"
         input file       "/tmp/Gau-1440819.EIn"
         output file      "/tmp/Gau-1440819.EOu"
         message file     "/tmp/Gau-1440819.EMs"
         fchk file        "/tmp/Gau-1440819.EFC"
         mat. el file     "/tmp/Gau-1440819.EUF"

 Writing WrtUnf unformatted file "/tmp/Gau-1440819.EUF"
 Gaussian matrix elements                                         Version   2 NLab=11 Len12L=8 Len4L=8
 Write SHELL TO ATOM MAP                   from file      0 offset           0 length                 373 to matrix element file.
 Write SHELL TYPES                         from file      0 offset           0 length                 373 to matrix element file.
 Write NUMBER OF PRIMITIVES PER SHELL      from file      0 offset           0 length                 373 to matrix element file.
 Write PRIMITIVE EXPONENTS                 from file      0 offset           0 length                 800 to matrix element file.
 Write CONTRACTION COEFFICIENTS            from file      0 offset           0 length                 800 to matrix element file.
 Write P(S=P) CONTRACTION COEFFICIENTS     from file      0 offset           0 length                 800 to matrix element file.
 Write COORDINATES OF EACH SHELL           from file      0 offset           0 length                1119 to matrix element file.
 Write BONDS PER ATOM                      from file      0 offset           0 length                  81 to matrix element file.
 Write BONDED ATOMS                        from file      0 offset           0 length                 178 to matrix element file.
 Write BOND TYPES                          from file      0 offset           0 length                 178 to matrix element file.
 Write ONIOM CHARGE/MULT                   from file      0 offset           0 length                  32 to matrix element file.
 Write ONIOM ATOM LAYERS                   from file      0 offset           0 length                  81 to matrix element file.
 Write ONIOM ATOM MODIFIERS                from file      0 offset           0 length                  81 to matrix element file.
 Write ONIOM ATOM TYPES                    from file      0 offset           0 length                  81 to matrix element file.
 Write ONIOM LINK ATOMS                    from file      0 offset           0 length                  81 to matrix element file.
 Write ONIOM LINK CHARGES                  from file      0 offset           0 length                  81 to matrix element file.
 Write ONIOM LINK DISTANCES                from file      0 offset           0 length                 324 to matrix element file.
 Write SYMINF INTS                         from file      0 offset           0 length                  26 to matrix element file.
 Write ROTTR TO SO                         from file      0 offset           0 length                  12 to matrix element file.
 Write GAUSSIAN SCALARS                    from file    501 offset           0 to matrix element file.
 Write OPTIMIZATION FLAGS                  from file      0 offset           0 length                  81 to matrix element file.
 Write INTEGER ISO                         from file      0 offset           0 length                  81 to matrix element file.
 Write INTEGER SPIN                        from file      0 offset           0 length                  81 to matrix element file.
 Write REAL ZEFFECTIVE                     from file      0 offset           0 length                  81 to matrix element file.
 Write REAL QUADRUPOLEMOMENT               from file      0 offset           0 length                  81 to matrix element file.
 Write REAL GFACTOR                        from file      0 offset           0 length                  81 to matrix element file.
 Write REAL ZNUCLEAR                       from file      0 offset           0 length                  81 to matrix element file.
 Write MULLIKEN CHARGES                    from file      0 offset           0 length                  81 to matrix element file.
 Write NUCLEAR GRADIENT                    from file  10584 offset           0 length                 243 to matrix element file.
 Array NUCLEAR FORCE CONSTANTS              on  file  10585 does not exist.
 Write ELECTRIC DIPOLE MOMENT              from file      0 offset           0 length                   3 to matrix element file.
 Write NON-ADIABATIC COUPLING              from file  10810 offset           0 length                 243 to matrix element file.
 Write FINITE EM FIELD                     from file  10521 offset           0 length                  35 to matrix element file.
 Write OVERLAP                             from file  10514 offset           0 length              521731 to matrix element file.
 Write CORE HAMILTONIAN ALPHA              from file  10515 offset           0 length              521731 to matrix element file.
 Write CORE HAMILTONIAN BETA               from file  10515 offset      521731 length              521731 to matrix element file.
 Write KINETIC ENERGY                      from file  10516 offset           0 length              521731 to matrix element file.
 Write ORTHOGONAL BASIS                    from file  10685 offset           0 length             1042441 to matrix element file.
 Write DIPOLE INTEGRALS                    from file  10518 offset           0 length             1565193 to matrix element file.
 Array DIP VEL INTEGRALS                    on  file  10572 does not exist.
 Array R X DEL INTEGRALS                    on  file  10572 does not exist.
 Write ALPHA ORBITAL ENERGIES              from file      0 offset           0 length                1021 to matrix element file.
 Write ALPHA MO COEFFICIENTS               from file  10524 offset           0 length             1042441 to matrix element file.
 Write ALPHA DENSITY MATRIX                from file      0 offset           0 length              521731 to matrix element file.
 Write ALPHA FOCK MATRIX                   from file  10536 offset           0 length              521731 to matrix element file.
 Write ENERGY-WEIGHTED DENSITY             from file  10571 offset           0 length              521731 to matrix element file.
 Write ALPHA SCF DENSITY MATRIX            from file      0 offset           0 length              521731 to matrix element file.
 Write INTEGER PARAMETERS                  from file      0 offset           0 length                   2 to matrix element file.
 No 2e integrals to process.
 Perform NBO analysis...

 *********************************** NBO 7.0 ***********************************
             N A T U R A L   A T O M I C   O R B I T A L   A N D
          N A T U R A L   B O N D   O R B I T A L   A N A L Y S I S
 **************************** Robert Paton (I101709) ***************************
  (c) Copyright 1996-2019 Board of Regents of the University of Wisconsin System
      on behalf of the Theoretical Chemistry Institute.  All rights reserved.

          Cite this program [NBO 7.0.5 (4-Jun-2019)] as:

          NBO 7.0.  E. D. Glendening, J. K. Badenhoop, A. E. Reed,
          J. E. Carpenter, J. A. Bohmann, C. M. Morales, P. Karafiloglou,
          C. R. Landis, and F. Weinhold, Theoretical Chemistry Institute,
          University of Wisconsin, Madison, WI (2018)

       /AONBO  / : Checkpoint the AO to NBO transformation
                   NBOs sorted by occupancy

 Filename set to /tmp/Gau-1440819

 Job title:  az_pp02_NBO


 NATURAL POPULATIONS:  Natural atomic orbital occupancies

  NAO Atom No lang   Type(AO)    Occupancy      Energy
 -------------------------------------------------------
   1    P  1  s      Cor( 1s)     2.00000     -76.97348
   2    P  1  s      Cor( 2s)     1.99996      -7.01825
   3    P  1  s      Val( 3s)     1.17364      -0.32345
   4    P  1  s      Ryd( 4s)     0.01093       1.59179
   5    P  1  s      Ryd( 5s)     0.00002      12.36664
   6    P  1  s      Ryd( 6s)     0.00000     157.75169
   7    P  1  px     Cor( 2p)     2.00000      -4.86741
   8    P  1  px     Val( 3p)     0.99351      -0.11419
   9    P  1  px     Ryd( 4p)     0.01040       1.11703
  10    P  1  px     Ryd( 5p)     0.00110       2.60158
  11    P  1  px     Ryd( 6p)     0.00001      13.34497
  12    P  1  py     Cor( 2p)     2.00000      -4.86780
  13    P  1  py     Val( 3p)     0.91128      -0.09671
  14    P  1  py     Ryd( 4p)     0.00849       1.16688
  15    P  1  py     Ryd( 5p)     0.00118       2.54846
  16    P  1  py     Ryd( 6p)     0.00001      13.25321
  17    P  1  pz     Cor( 2p)     2.00000      -4.86853
  18    P  1  pz     Val( 3p)     0.72767      -0.04533
  19    P  1  pz     Ryd( 4p)     0.00881       0.77956
  20    P  1  pz     Ryd( 5p)     0.00106       2.43963
  21    P  1  pz     Ryd( 6p)     0.00001      13.22164
  22    P  1  dxy    Ryd( 3d)     0.00634       1.17242
  23    P  1  dxz    Ryd( 3d)     0.00890       1.25546
  24    P  1  dyz    Ryd( 3d)     0.00787       1.29492
  25    P  1  dx2y2  Ryd( 3d)     0.00617       1.15589
  26    P  1  dz2    Ryd( 3d)     0.00400       1.22640

  27   Pd  2  s      Cor( 4s)     1.99994      -3.48120
  28   Pd  2  s      Val( 5s)     0.34615       0.26175
  29   Pd  2  s      Ryd( 6s)     0.00164       6.73362
  30   Pd  2  px     Cor( 4p)     1.99987      -2.20645
  31   Pd  2  px     Ryd( 6p)     0.00740       1.31218
  32   Pd  2  px     Ryd( 5p)     0.00043       0.31097
  33   Pd  2  py     Cor( 4p)     1.99988      -2.20588
  34   Pd  2  py     Ryd( 6p)     0.00718       1.69714
  35   Pd  2  py     Ryd( 5p)     0.00125       0.32115
  36   Pd  2  pz     Cor( 4p)     1.99988      -2.17231
  37   Pd  2  pz     Ryd( 6p)     0.00631       0.63563
  38   Pd  2  pz     Ryd( 5p)     0.00045       0.19349
  39   Pd  2  dxy    Val( 4d)     1.31121      -0.31533
  40   Pd  2  dxy    Ryd( 5d)     0.00410       1.18605
  41   Pd  2  dxz    Val( 4d)     1.97756      -0.37564
  42   Pd  2  dxz    Ryd( 5d)     0.00079       0.89062
  43   Pd  2  dyz    Val( 4d)     1.96365      -0.37243
  44   Pd  2  dyz    Ryd( 5d)     0.00117       0.87135
  45   Pd  2  dx2y2  Val( 4d)     1.96310      -0.39738
  46   Pd  2  dx2y2  Ryd( 5d)     0.00155       0.90412
  47   Pd  2  dz2    Val( 4d)     1.97132      -0.36899
  48   Pd  2  dz2    Ryd( 5d)     0.00149       0.97180
  49   Pd  2  f(0)   Ryd( 4f)     0.00008       2.69822
  50   Pd  2  f(c1)  Ryd( 4f)     0.00009       2.71279
  51   Pd  2  f(s1)  Ryd( 4f)     0.00009       2.70882
  52   Pd  2  f(c2)  Ryd( 4f)     0.00001       2.67442
  53   Pd  2  f(s2)  Ryd( 4f)     0.00006       2.68915
  54   Pd  2  f(c3)  Ryd( 4f)     0.00016       2.69629
  55   Pd  2  f(s3)  Ryd( 4f)     0.00019       2.70028

  56    P  3  s      Cor( 1s)     2.00000     -76.97336
  57    P  3  s      Cor( 2s)     1.99996      -7.01864
  58    P  3  s      Val( 3s)     1.17281      -0.32333
  59    P  3  s      Ryd( 4s)     0.01105       1.58965
  60    P  3  s      Ryd( 5s)     0.00002      12.37067
  61    P  3  s      Ryd( 6s)     0.00000     157.74575
  62    P  3  px     Cor( 2p)     2.00000      -4.86770
  63    P  3  px     Val( 3p)     0.96037      -0.10573
  64    P  3  px     Ryd( 4p)     0.01004       1.04373
  65    P  3  px     Ryd( 5p)     0.00111       2.56787
  66    P  3  px     Ryd( 6p)     0.00001      13.33566
  67    P  3  py     Cor( 2p)     2.00000      -4.86780
  68    P  3  py     Val( 3p)     0.94166      -0.10441
  69    P  3  py     Ryd( 4p)     0.00881       1.23130
  70    P  3  py     Ryd( 5p)     0.00117       2.58457
  71    P  3  py     Ryd( 6p)     0.00001      13.26382
  72    P  3  pz     Cor( 2p)     2.00000      -4.86866
  73    P  3  pz     Val( 3p)     0.72922      -0.04573
  74    P  3  pz     Ryd( 4p)     0.00886       0.77739
  75    P  3  pz     Ryd( 5p)     0.00106       2.44390
  76    P  3  pz     Ryd( 6p)     0.00001      13.22045
  77    P  3  dxy    Ryd( 3d)     0.00640       1.18310
  78    P  3  dxz    Ryd( 3d)     0.00897       1.26039
  79    P  3  dyz    Ryd( 3d)     0.00797       1.29220
  80    P  3  dx2y2  Ryd( 3d)     0.00612       1.14329
  81    P  3  dz2    Ryd( 3d)     0.00388       1.22300

  82   Cl  4  s      Cor( 1s)     2.00000    -101.42615
  83   Cl  4  s      Cor( 2s)     1.99998      -9.68670
  84   Cl  4  s      Val( 3s)     1.95012      -0.78913
  85   Cl  4  s      Ryd( 4s)     0.00032       1.57272
  86   Cl  4  s      Ryd( 5s)     0.00002      18.37044
  87   Cl  4  s      Ryd( 6s)     0.00000     207.20451
  88   Cl  4  px     Cor( 2p)     2.00000      -7.23785
  89   Cl  4  px     Val( 3p)     1.88246      -0.31712
  90   Cl  4  px     Ryd( 4p)     0.00141       0.57679
  91   Cl  4  px     Ryd( 5p)     0.00003       3.08003
  92   Cl  4  px     Ryd( 6p)     0.00000      25.29593
  93   Cl  4  py     Cor( 2p)     2.00000      -7.23888
  94   Cl  4  py     Val( 3p)     1.82873      -0.31425
  95   Cl  4  py     Ryd( 4p)     0.00084       0.61555
  96   Cl  4  py     Ryd( 5p)     0.00003       3.31172
  97   Cl  4  py     Ryd( 6p)     0.00000      25.34289
  98   Cl  4  pz     Cor( 2p)     2.00000      -7.23649
  99   Cl  4  pz     Val( 3p)     1.97501      -0.32600
 100   Cl  4  pz     Ryd( 4p)     0.00066       0.58435
 101   Cl  4  pz     Ryd( 5p)     0.00001       2.91788
 102   Cl  4  pz     Ryd( 6p)     0.00000      25.24047
 103   Cl  4  dxy    Ryd( 3d)     0.00104       1.22504
 104   Cl  4  dxz    Ryd( 3d)     0.00026       1.08341
 105   Cl  4  dyz    Ryd( 3d)     0.00038       1.09680
 106   Cl  4  dx2y2  Ryd( 3d)     0.00058       1.13241
 107   Cl  4  dz2    Ryd( 3d)     0.00038       1.11829

 108   Cl  5  s      Cor( 1s)     2.00000    -101.42608
 109   Cl  5  s      Cor( 2s)     1.99998      -9.68719
 110   Cl  5  s      Val( 3s)     1.94996      -0.78893
 111   Cl  5  s      Ryd( 4s)     0.00032       1.57653
 112   Cl  5  s      Ryd( 5s)     0.00002      18.35018
 113   Cl  5  s      Ryd( 6s)     0.00000     207.22243
 114   Cl  5  px     Cor( 2p)     2.00000      -7.23842
 115   Cl  5  px     Val( 3p)     1.85801      -0.31555
 116   Cl  5  px     Ryd( 4p)     0.00143       0.57335
 117   Cl  5  px     Ryd( 5p)     0.00003       3.10558
 118   Cl  5  px     Ryd( 6p)     0.00000      25.30480
 119   Cl  5  py     Cor( 2p)     2.00000      -7.23852
 120   Cl  5  py     Val( 3p)     1.85285      -0.31591
 121   Cl  5  py     Ryd( 4p)     0.00085       0.61593
 122   Cl  5  py     Ryd( 5p)     0.00003       3.28214
 123   Cl  5  py     Ryd( 6p)     0.00000      25.33911
 124   Cl  5  pz     Cor( 2p)     2.00000      -7.23660
 125   Cl  5  pz     Val( 3p)     1.97382      -0.32591
 126   Cl  5  pz     Ryd( 4p)     0.00067       0.58383
 127   Cl  5  pz     Ryd( 5p)     0.00001       2.92082
 128   Cl  5  pz     Ryd( 6p)     0.00000      25.24516
 129   Cl  5  dxy    Ryd( 3d)     0.00106       1.21736
 130   Cl  5  dxz    Ryd( 3d)     0.00031       1.08794
 131   Cl  5  dyz    Ryd( 3d)     0.00034       1.09586
 132   Cl  5  dx2y2  Ryd( 3d)     0.00056       1.13934
 133   Cl  5  dz2    Ryd( 3d)     0.00038       1.11753

 134    C  6  s      Cor( 1s)     1.99999     -10.32224
 135    C  6  s      Val( 2s)     0.94321      -0.11441
 136    C  6  s      Ryd( 3s)     0.00338       1.33666
 137    C  6  s      Ryd( 4s)     0.00001      23.20264
 138    C  6  px     Val( 2p)     1.09490      -0.12684
 139    C  6  px     Ryd( 3p)     0.00493       0.98447
 140    C  6  px     Ryd( 4p)     0.00010       3.30708
 141    C  6  py     Val( 2p)     1.14619      -0.13080
 142    C  6  py     Ryd( 3p)     0.00587       1.22371
 143    C  6  py     Ryd( 4p)     0.00015       3.43772
 144    C  6  pz     Val( 2p)     1.12611      -0.08774
 145    C  6  pz     Ryd( 3p)     0.00773       1.29028
 146    C  6  pz     Ryd( 4p)     0.00016       3.64636
 147    C  6  dxy    Ryd( 3d)     0.00087       2.07673
 148    C  6  dxz    Ryd( 3d)     0.00061       1.91946
 149    C  6  dyz    Ryd( 3d)     0.00136       2.03796
 150    C  6  dx2y2  Ryd( 3d)     0.00084       1.78516
 151    C  6  dz2    Ryd( 3d)     0.00096       2.27153

 152    C  7  s      Cor( 1s)     1.99999     -10.30844
 153    C  7  s      Val( 2s)     0.94983      -0.11427
 154    C  7  s      Ryd( 3s)     0.00343       1.18365
 155    C  7  s      Ryd( 4s)     0.00001      23.51866
 156    C  7  px     Val( 2p)     1.15101      -0.09302
 157    C  7  px     Ryd( 3p)     0.00749       1.19646
 158    C  7  px     Ryd( 4p)     0.00020       3.63025
 159    C  7  py     Val( 2p)     1.11147      -0.12099
 160    C  7  py     Ryd( 3p)     0.00598       0.90209
 161    C  7  py     Ryd( 4p)     0.00010       3.23697
 162    C  7  pz     Val( 2p)     1.11969      -0.10729
 163    C  7  pz     Ryd( 3p)     0.00467       1.03289
 164    C  7  pz     Ryd( 4p)     0.00013       3.39830
 165    C  7  dxy    Ryd( 3d)     0.00092       1.89701
 166    C  7  dxz    Ryd( 3d)     0.00109       2.01141
 167    C  7  dyz    Ryd( 3d)     0.00092       2.12157
 168    C  7  dx2y2  Ryd( 3d)     0.00093       2.11213
 169    C  7  dz2    Ryd( 3d)     0.00067       1.89487

 170    C  8  s      Cor( 1s)     1.99999     -10.31121
 171    C  8  s      Val( 2s)     0.94959      -0.11857
 172    C  8  s      Ryd( 3s)     0.00321       1.22241
 173    C  8  s      Ryd( 4s)     0.00001      23.54474
 174    C  8  px     Val( 2p)     1.11647      -0.12395
 175    C  8  px     Ryd( 3p)     0.00414       0.92201
 176    C  8  px     Ryd( 4p)     0.00013       3.25155
 177    C  8  py     Val( 2p)     1.11708      -0.09951
 178    C  8  py     Ryd( 3p)     0.00415       0.98176
 179    C  8  py     Ryd( 4p)     0.00018       3.43839
 180    C  8  pz     Val( 2p)     1.17351      -0.11886
 181    C  8  pz     Ryd( 3p)     0.00985       1.26163
 182    C  8  pz     Ryd( 4p)     0.00021       3.52667
 183    C  8  dxy    Ryd( 3d)     0.00084       2.15257
 184    C  8  dxz    Ryd( 3d)     0.00094       1.88618
 185    C  8  dyz    Ryd( 3d)     0.00102       2.04996
 186    C  8  dx2y2  Ryd( 3d)     0.00054       1.78051
 187    C  8  dz2    Ryd( 3d)     0.00125       2.23473

 188    C  9  s      Cor( 1s)     1.99999     -10.32469
 189    C  9  s      Val( 2s)     0.83455      -0.01982
 190    C  9  s      Ryd( 3s)     0.00165       1.43637
 191    C  9  s      Ryd( 4s)     0.00001      22.77341
 192    C  9  px     Val( 2p)     1.03171      -0.09524
 193    C  9  px     Ryd( 3p)     0.00442       0.97600
 194    C  9  px     Ryd( 4p)     0.00016       3.29217
 195    C  9  py     Val( 2p)     1.07009      -0.07742
 196    C  9  py     Ryd( 3p)     0.00377       1.09388
 197    C  9  py     Ryd( 4p)     0.00020       3.52642
 198    C  9  pz     Val( 2p)     1.06571      -0.03731
 199    C  9  pz     Ryd( 3p)     0.00713       1.77106
 200    C  9  pz     Ryd( 4p)     0.00014       3.70668
 201    C  9  dxy    Ryd( 3d)     0.00061       2.24661
 202    C  9  dxz    Ryd( 3d)     0.00064       2.06768
 203    C  9  dyz    Ryd( 3d)     0.00078       2.28903
 204    C  9  dx2y2  Ryd( 3d)     0.00073       1.82126
 205    C  9  dz2    Ryd( 3d)     0.00080       2.29278

 206    C 10  s      Cor( 1s)     1.99999     -10.30163
 207    C 10  s      Val( 2s)     0.92730      -0.07016
 208    C 10  s      Ryd( 3s)     0.00179       1.43085
 209    C 10  s      Ryd( 4s)     0.00001      22.59617
 210    C 10  px     Val( 2p)     1.06858      -0.09992
 211    C 10  px     Ryd( 3p)     0.00402       0.97123
 212    C 10  px     Ryd( 4p)     0.00006       3.05227
 213    C 10  py     Val( 2p)     1.10868      -0.08309
 214    C 10  py     Ryd( 3p)     0.00494       1.15369
 215    C 10  py     Ryd( 4p)     0.00010       3.17264
 216    C 10  pz     Val( 2p)     1.07950      -0.04100
 217    C 10  pz     Ryd( 3p)     0.00397       1.06652
 218    C 10  pz     Ryd( 4p)     0.00018       3.47708
 219    C 10  dxy    Ryd( 3d)     0.00115       2.01801
 220    C 10  dxz    Ryd( 3d)     0.00081       1.97650
 221    C 10  dyz    Ryd( 3d)     0.00087       2.18464
 222    C 10  dx2y2  Ryd( 3d)     0.00054       1.65498
 223    C 10  dz2    Ryd( 3d)     0.00082       2.22513

 224    C 11  s      Cor( 1s)     1.99999     -10.29636
 225    C 11  s      Val( 2s)     0.93438      -0.06555
 226    C 11  s      Ryd( 3s)     0.00220       1.20112
 227    C 11  s      Ryd( 4s)     0.00001      23.11798
 228    C 11  px     Val( 2p)     1.08446      -0.03178
 229    C 11  px     Ryd( 3p)     0.00333       1.06158
 230    C 11  px     Ryd( 4p)     0.00022       3.49881
 231    C 11  py     Val( 2p)     1.04298      -0.09381
 232    C 11  py     Ryd( 3p)     0.00414       0.91005
 233    C 11  py     Ryd( 4p)     0.00005       2.98056
 234    C 11  pz     Val( 2p)     1.11061      -0.07665
 235    C 11  pz     Ryd( 3p)     0.00506       1.14271
 236    C 11  pz     Ryd( 4p)     0.00009       3.09098
 237    C 11  dxy    Ryd( 3d)     0.00068       1.94457
 238    C 11  dxz    Ryd( 3d)     0.00086       2.14565
 239    C 11  dyz    Ryd( 3d)     0.00117       1.93693
 240    C 11  dx2y2  Ryd( 3d)     0.00068       2.08996
 241    C 11  dz2    Ryd( 3d)     0.00071       1.78705

 242    C 12  s      Cor( 1s)     1.99999     -10.29524
 243    C 12  s      Val( 2s)     0.93572      -0.06832
 244    C 12  s      Ryd( 3s)     0.00193       1.22830
 245    C 12  s      Ryd( 4s)     0.00001      23.14317
 246    C 12  px     Val( 2p)     1.18471      -0.06043
 247    C 12  px     Ryd( 3p)     0.00763       1.33692
 248    C 12  px     Ryd( 4p)     0.00013       3.27753
 249    C 12  py     Val( 2p)     1.00553      -0.07881
 250    C 12  py     Ryd( 3p)     0.00207       0.82932
 251    C 12  py     Ryd( 4p)     0.00008       3.15379
 252    C 12  pz     Val( 2p)     1.03770      -0.05650
 253    C 12  pz     Ryd( 3p)     0.00273       0.88801
 254    C 12  pz     Ryd( 4p)     0.00014       3.36536
 255    C 12  dxy    Ryd( 3d)     0.00068       1.85446
 256    C 12  dxz    Ryd( 3d)     0.00091       2.07528
 257    C 12  dyz    Ryd( 3d)     0.00072       2.13296
 258    C 12  dx2y2  Ryd( 3d)     0.00124       1.96978
 259    C 12  dz2    Ryd( 3d)     0.00071       1.87533

 260    C 13  s      Cor( 1s)     1.99999     -10.30238
 261    C 13  s      Val( 2s)     0.93648      -0.07236
 262    C 13  s      Ryd( 3s)     0.00209       1.24841
 263    C 13  s      Ryd( 4s)     0.00001      23.32514
 264    C 13  px     Val( 2p)     1.01805      -0.08688
 265    C 13  px     Ryd( 3p)     0.00302       0.81223
 266    C 13  px     Ryd( 4p)     0.00011       3.21014
 267    C 13  py     Val( 2p)     1.06305      -0.07274
 268    C 13  py     Ryd( 3p)     0.00371       0.94286
 269    C 13  py     Ryd( 4p)     0.00014       3.35635
 270    C 13  pz     Val( 2p)     1.16183      -0.06339
 271    C 13  pz     Ryd( 3p)     0.00736       1.22465
 272    C 13  pz     Ryd( 4p)     0.00018       3.38554
 273    C 13  dxy    Ryd( 3d)     0.00071       2.13158
 274    C 13  dxz    Ryd( 3d)     0.00071       1.89551
 275    C 13  dyz    Ryd( 3d)     0.00110       2.02612
 276    C 13  dx2y2  Ryd( 3d)     0.00050       1.73248
 277    C 13  dz2    Ryd( 3d)     0.00119       2.18726

 278    C 14  s      Cor( 1s)     1.99999     -10.29934
 279    C 14  s      Val( 2s)     0.93727      -0.07036
 280    C 14  s      Ryd( 3s)     0.00181       1.23404
 281    C 14  s      Ryd( 4s)     0.00001      23.09904
 282    C 14  px     Val( 2p)     1.04579      -0.09247
 283    C 14  px     Ryd( 3p)     0.00434       0.95931
 284    C 14  px     Ryd( 4p)     0.00005       3.03389
 285    C 14  py     Val( 2p)     1.10098      -0.08129
 286    C 14  py     Ryd( 3p)     0.00575       1.08527
 287    C 14  py     Ryd( 4p)     0.00007       3.10473
 288    C 14  pz     Val( 2p)     1.06808      -0.02885
 289    C 14  pz     Ryd( 3p)     0.00346       1.01426
 290    C 14  pz     Ryd( 4p)     0.00023       3.58441
 291    C 14  dxy    Ryd( 3d)     0.00126       1.92592
 292    C 14  dxz    Ryd( 3d)     0.00070       1.99317
 293    C 14  dyz    Ryd( 3d)     0.00082       2.13633
 294    C 14  dx2y2  Ryd( 3d)     0.00050       1.60161
 295    C 14  dz2    Ryd( 3d)     0.00092       2.28171

 296    C 15  s      Cor( 1s)     1.99999     -10.32467
[...]
  710.  0.00010     3.60802  898.   RY ( 6) C 45
  711.  0.00010     1.14100  372.   RY ( 4)Cl  5
  712.  0.00010     2.34422  665.   RY ( 7) C 27
  713.  0.00010     2.33079  951.   RY ( 7) C 49
  714.  0.00009     2.36984  989.   RY ( 2) H 65
  715.  0.00009     2.36927  995.   RY ( 2) H 68
  716.  0.00009     2.35333  999.   RY ( 2) H 70
  717.  0.00009     2.35334 1001.   RY ( 2) H 71
  718.  0.00009     1.13783  355.   RY ( 4)Cl  4
  719.  0.00009     3.21371  497.   RY ( 8) C 14
  720.  0.00009     3.20850  861.   RY ( 8) C 42
  721.  0.00009     2.32566  587.   RY ( 7) C 21
  722.  0.00009     2.32944  912.   RY ( 7) C 46
  723.  0.00009     2.41912  975.   RY ( 2) H 58
  724.  0.00009     2.37612  977.   RY ( 2) H 59
  725.  0.00009     2.41836 1017.   RY ( 2) H 79
  726.  0.00009     2.36346  971.   RY ( 2) H 56
  727.  0.00009     2.37056  983.   RY ( 2) H 62
  728.  0.00009     2.37834 1015.   RY ( 2) H 78
  729.  0.00009     2.37238 1021.   RY ( 2) H 81
  730.  0.00009     2.45588  408.   RY (10) C  7
  731.  0.00009     2.24652  782.   RY ( 7) C 36
  732.  0.00009     2.24652  795.   RY ( 7) C 37
  733.  0.00009     2.54325  811.   RY (10) C 38
  734.  0.00009     2.37420  973.   RY ( 2) H 57
  735.  0.00009     2.35319  981.   RY ( 2) H 61
  736.  0.00009     2.36366 1013.   RY ( 2) H 77
  737.  0.00009     2.37430 1011.   RY ( 2) H 76
  738.  0.00009     2.35338 1019.   RY ( 2) H 80
  739.  0.00009     2.04109  395.   RY (10) C  6
  740.  0.00009     2.34310  561.   RY ( 7) C 19
  741.  0.00009     2.03738  603.   RY (10) C 22
  742.  0.00009     2.24632  652.   RY ( 7) C 26
  743.  0.00009     2.34799  886.   RY ( 7) C 44
  744.  0.00009     2.24686  938.   RY ( 7) C 48
  745.  0.00008     2.22551  548.   RY ( 7) C 18
  746.  0.00008     2.22360  899.   RY ( 7) C 45
  747.  0.00008     2.80951  471.   RY ( 8) C 12
  748.  0.00008     1.76384  484.   RY ( 8) C 13
  749.  0.00008     2.76608  835.   RY ( 8) C 40
  750.  0.00008     1.75963  874.   RY ( 8) C 43
  751.  0.00007     1.59087  373.   RY ( 5)Cl  5
  752.  0.00007     1.58544  356.   RY ( 5)Cl  4
  753.  0.00007     2.13310  421.   RY (10) C  8
  754.  0.00007     2.13244  824.   RY (10) C 39
  755.  0.00007     2.41699  525.   RY (10) C 16
  756.  0.00007     2.41446  616.   RY (10) C 23
  757.  0.00006     1.64593  627.   RY ( 8) C 24
  758.  0.00006     1.64346  692.   RY ( 8) C 29
  759.  0.00006     2.20945  485.   RY ( 9) C 13
  760.  0.00006     2.20659  875.   RY ( 9) C 43
  761.  0.00005     2.65317  328.   RY (13)Pd  2
  762.  0.00005     2.77092  329.   RY (14)Pd  2
  763.  0.00005     1.90280  498.   RY ( 9) C 14
  764.  0.00005     2.41286  526.   RY (11) C 16
  765.  0.00005     2.41351  617.   RY (11) C 23
  766.  0.00005     1.85366  862.   RY ( 9) C 42
  767.  0.00004     2.55584  435.   RY (11) C  9
  768.  0.00004     2.83886  445.   RY ( 8) C 10
  769.  0.00004     2.48248  458.   RY ( 8) C 11
  770.  0.00004     2.55781  513.   RY (11) C 15
  771.  0.00004     2.84713  679.   RY ( 8) C 28
  772.  0.00004     2.50648  848.   RY ( 8) C 41
  773.  0.00004     2.68943  330.   RY (15)Pd  2
  774.  0.00004     1.90784  374.   RY ( 6)Cl  5
  775.  0.00004     2.61365  575.   RY ( 8) C 20
  776.  0.00004     2.55630  926.   RY ( 8) C 47
  777.  0.00004     1.92876  357.   RY ( 6)Cl  4
  778.  0.00004     2.71224  588.   RY ( 8) C 21
  779.  0.00004     2.51884  472.   RY ( 9) C 12
  780.  0.00004     2.77783  666.   RY ( 8) C 27
  781.  0.00004     2.39683  836.   RY ( 9) C 40
  782.  0.00004     2.71149  913.   RY ( 8) C 46
  783.  0.00004     2.77985  952.   RY ( 8) C 49
  784.  0.00004     2.71911  549.   RY ( 8) C 18
  785.  0.00004     2.65973  562.   RY ( 8) C 19
  786.  0.00004     1.84594  576.   RY ( 9) C 20
  787.  0.00004     2.67983  653.   RY ( 8) C 26
  788.  0.00004     2.44910  628.   RY ( 9) C 24
  789.  0.00004     2.65880  887.   RY ( 8) C 44
  790.  0.00004     2.45259  693.   RY ( 9) C 29
  791.  0.00004     2.71563  900.   RY ( 8) C 45
  792.  0.00004     1.92003  927.   RY ( 9) C 47
  793.  0.00004     2.67793  939.   RY ( 8) C 48
  794.  0.00003     2.47101  473.   RY (10) C 12
  795.  0.00003     2.64843  837.   RY (10) C 40
  796.  0.00003     2.00659  499.   RY (10) C 14
  797.  0.00003     2.05337  863.   RY (10) C 42
  798.  0.00003     1.28580  358.   RY ( 7)Cl  4
  799.  0.00003     1.27228  375.   RY ( 7)Cl  5
  800.  0.00003     2.28207  536.   RY ( 8) C 17
  801.  0.00003     3.12278  642.   RY (10) C 25
  802.  0.00003     3.12217  707.   RY (10) C 30
  803.  0.00003     2.57885  731.   RY ( 8) C 32
  804.  0.00003     2.28494  744.   RY ( 8) C 33
  805.  0.00003     2.58356  770.   RY ( 8) C 35
  806.  0.00003     3.00495  396.   RY (11) C  6
  807.  0.00003     1.69412  446.   RY ( 9) C 10
  808.  0.00003     2.99511  604.   RY (11) C 22
  809.  0.00003     1.70915  680.   RY ( 9) C 28
  810.  0.00003     2.84607  718.   RY ( 8) C 31
  811.  0.00003     2.84496  757.   RY ( 8) C 34
  812.  0.00003     2.83510  783.   RY ( 8) C 36
  813.  0.00003     2.83430  796.   RY ( 8) C 37
  814.  0.00003     1.45732  359.   RY ( 8)Cl  4
  815.  0.00003     1.43413  376.   RY ( 8)Cl  5
  816.  0.00003     3.33497  486.   RY (10) C 13
  817.  0.00003     1.83058  537.   RY ( 9) C 17
  818.  0.00003     2.42247  643.   RY (11) C 25
  819.  0.00003     2.42577  708.   RY (11) C 30
  820.  0.00003     1.83104  745.   RY ( 9) C 33
  821.  0.00003     3.41507  876.   RY (10) C 43
  822.  0.00002     2.32280  629.   RY (10) C 24
  823.  0.00002     2.32214  694.   RY (10) C 29
  824.  0.00002     1.61437  732.   RY ( 9) C 32
  825.  0.00002     1.60864  771.   RY ( 9) C 35
  826.  0.00002     2.34765  459.   RY ( 9) C 11
  827.  0.00002     2.27714  849.   RY ( 9) C 41
  828.  0.00002     2.60114  331.   RY (16)Pd  2
  829.  0.00002     1.86731  953.   RY ( 9) C 49
  830.  0.00002     1.88117  667.   RY ( 9) C 27
  831.  0.00002     1.35170  360.   RY ( 9)Cl  4
  832.  0.00002     1.28268  377.   RY ( 9)Cl  5
  833.  0.00002     3.02701  422.   RY (11) C  8
  834.  0.00002     3.25420  436.   RY (12) C  9
  835.  0.00002     2.88891  487.   RY (11) C 13
  836.  0.00002     2.41060  447.   RY (10) C 10
  837.  0.00002     2.12053  460.   RY (10) C 11
  838.  0.00002     3.24466  514.   RY (12) C 15
  839.  0.00002     3.02124  825.   RY (11) C 39
  840.  0.00002    12.18968  311.   RY (13) P  1
  841.  0.00001     2.68346  332.   RY (17)Pd  2
  842.  0.00002    12.17596  347.   RY (13) P  3
  843.  0.00002     3.03611  409.   RY (11) C  7
  844.  0.00002     4.49213  474.   RY (11) C 12
  845.  0.00002     2.58426  577.   RY (10) C 20
  846.  0.00002     1.86609  589.   RY ( 9) C 21
  847.  0.00002     2.12121  850.   RY (10) C 41
  848.  0.00002     2.85580  877.   RY (11) C 43
  849.  0.00002     1.84265  914.   RY ( 9) C 46
  850.  0.00002     2.40587  681.   RY (10) C 28
  851.  0.00002     3.02216  812.   RY (11) C 38
  852.  0.00002     4.43713  838.   RY (11) C 40
  853.  0.00002     2.59459  928.   RY (10) C 47
  854.  0.00001     4.51774  361.   RY (10)Cl  4
  855.  0.00001     4.63600  378.   RY (10)Cl  5
  856.  0.00001     3.65589  448.   RY (11) C 10
  857.  0.00001     3.30598  630.   RY (11) C 24
  858.  0.00001     2.19862  538.   RY (10) C 17
  859.  0.00001     3.63487  682.   RY (11) C 28
  860.  0.00001     3.29964  695.   RY (11) C 29
  861.  0.00001     2.11122  719.   RY ( 9) C 31
  862.  0.00001     2.18131  746.   RY (10) C 33
  863.  0.00001     2.18558  733.   RY (10) C 32
  864.  0.00001     2.09613  758.   RY ( 9) C 34
  865.  0.00001     2.17819  772.   RY (10) C 35
  866.  0.00001     3.05780  475.   RY (12) C 12
  867.  0.00001     3.23301  550.   RY ( 9) C 18
  868.  0.00001     2.41446  654.   RY ( 9) C 26
  869.  0.00001     2.07024  784.   RY ( 9) C 36
  870.  0.00001     2.08126  797.   RY ( 9) C 37
  871.  0.00001     6.32001  397.   RY (12) C  6
  872.  0.00001     3.26604  410.   RY (12) C  7
  873.  0.00001    21.80926  437.   RY (13) C  9
  874.  0.00001     2.70903  500.   RY (11) C 14
  875.  0.00001     2.23782  563.   RY ( 9) C 19
  876.  0.00001     1.84049  668.   RY (10) C 27
  877.  0.00001     3.09092  839.   RY (12) C 40
  878.  0.00001     2.48225  461.   RY (11) C 11
  879.  0.00001     3.42284  488.   RY (12) C 13
  880.  0.00001    21.80862  515.   RY (13) C 15
  881.  0.00001     3.87983  527.   RY (12) C 16
  882.  0.00001     2.63000  333.   RY (18)Pd  2
  883.  0.00001     2.92172  501.   RY (12) C 14
  884.  0.00001     3.86447  539.   RY (11) C 17
  885.  0.00001     3.48043  564.   RY (10) C 19
  886.  0.00001     3.62273  578.   RY (11) C 20
  887.  0.00001     1.92900  590.   RY (10) C 21
  888.  0.00001     3.79827  591.   RY (11) C 21
  889.  0.00001     6.22455  605.   RY (12) C 22
  890.  0.00001     4.07346  618.   RY (12) C 23
  891.  0.00001     3.16723  734.   RY (11) C 32
  892.  0.00001     2.84028  720.   RY (10) C 31
  893.  0.00001     3.84138  747.   RY (11) C 33
  894.  0.00001     3.17360  773.   RY (11) C 35
  895.  0.00001     3.38271  813.   RY (12) C 38
  896.  0.00001     2.53497  851.   RY (11) C 41
  897.  0.00001     2.70364  864.   RY (11) C 42
  898.  0.00001     2.13365  888.   RY ( 9) C 44
  899.  0.00001     3.17888  901.   RY ( 9) C 45
  900.  0.00001     2.40750  940.   RY ( 9) C 48
  901.  0.00001     1.85722  954.   RY (10) C 49
  902.  0.00001     3.61344  889.   RY (10) C 44
  903.  0.00001     1.94824  915.   RY (10) C 46
  904.  0.00001     3.70078  929.   RY (11) C 47
  905.  0.00001     2.87960  759.   RY (10) C 34
  906.  0.00000     4.09277  423.   RY (12) C  8
  907.  0.00001     1.83854  785.   RY (10) C 36
  908.  0.00000    13.49929  312.   RY (14) P  1
  909.  0.00000     2.67268  334.   RY (19)Pd  2
  910.  0.00000    13.51089  348.   RY (14) P  3
  911.  0.00000   157.37725  313.   RY (15) P  1
  912.  0.00000    12.94215  314.   RY (16) P  1
  913.  0.00000    13.02730  315.   RY (17) P  1
  914.  0.00000   157.36995  349.   RY (15) P  3
  915.  0.00000    12.93883  350.   RY (16) P  3
  916.  0.00000    13.03255  351.   RY (17) P  3
  917.  0.00000     3.33504  362.   RY (11)Cl  4
  918.  0.00000     3.40569  379.   RY (11)Cl  5
  919.  0.00000    18.92102  398.   RY (13) C  6
  920.  0.00000    21.84873  411.   RY (13) C  7
  921.  0.00000    21.02681  424.   RY (13) C  8
  922.  0.00000     3.23257  449.   RY (12) C 10
  923.  0.00000     5.22741  363.   RY (12)Cl  4
  924.  0.00000    23.97364  364.   RY (13)Cl  4
  925.  0.00000    26.33942  365.   RY (14)Cl  4
  926.  0.00000    14.57221  366.   RY (15)Cl  4
  927.  0.00000     4.49035  380.   RY (12)Cl  5
  928.  0.00000    20.20097  450.   RY (13) C 10
  929.  0.00000     2.84909  462.   RY (12) C 11
  930.  0.00000    20.90178  528.   RY (13) C 16
  931.  0.00000     2.92477  551.   RY (10) C 18
  932.  0.00000     2.00857  565.   RY (11) C 19
  933.  0.00000    24.86399  367.   RY (16)Cl  4
  934.  0.00000   205.70274  368.   RY (17)Cl  4
  935.  0.00000    24.03384  381.   RY (13)Cl  5
  936.  0.00000    26.32410  382.   RY (14)Cl  5
  937.  0.00000    15.23813  383.   RY (15)Cl  5
  938.  0.00000    21.70745  463.   RY (13) C 11
  939.  0.00000    24.81952  384.   RY (16)Cl  5
  940.  0.00000   205.71395  385.   RY (17)Cl  5
  941.  0.00000    19.61168  476.   RY (13) C 12
  942.  0.00000    20.86037  489.   RY (13) C 13
  943.  0.00000    22.02335  502.   RY (13) C 14
  944.  0.00000     2.84805  540.   RY (12) C 17
  945.  0.00000    20.25139  541.   RY (13) C 17
  946.  0.00000     2.41063  552.   RY (11) C 18
  947.  0.00000     2.83904  579.   RY (12) C 20
  948.  0.00000    20.72340  619.   RY (13) C 23
  949.  0.00000     3.05707  553.   RY (12) C 18
  950.  0.00000    19.44496  554.   RY (13) C 18
  951.  0.00000     5.44129  566.   RY (12) C 19
  952.  0.00000    17.95209  567.   RY (13) C 19
  953.  0.00000    20.40141  580.   RY (13) C 20
  954.  0.00000    19.01354  606.   RY (13) C 22
  955.  0.00000     4.22971  631.   RY (12) C 24
  956.  0.00000    18.21985  644.   RY (12) C 25
  957.  0.00000     2.76557  655.   RY (10) C 26
  958.  0.00000     3.64462  669.   RY (11) C 27
  959.  0.00000     2.69913  721.   RY (11) C 31
  960.  0.00000     2.69534  760.   RY (11) C 34
  961.  0.00000     3.23247  683.   RY (12) C 28
  962.  0.00000     4.26356  696.   RY (12) C 29
  963.  0.00000    18.45073  709.   RY (12) C 30
  964.  0.00000     3.41887  786.   RY (11) C 36
  965.  0.00000     3.40814  798.   RY (10) C 37
  966.  0.00001     1.82275  799.   RY (11) C 37
  967.  0.00001     2.92481  865.   RY (12) C 42
  968.  0.00001     3.36587  878.   RY (12) C 43
  969.  0.00001     3.79890  916.   RY (11) C 46
  970.  0.00000     3.90940  826.   RY (12) C 39
  971.  0.00000    20.31784  592.   RY (12) C 21
  972.  0.00000     3.14226  593.   RY (13) C 21
  973.  0.00000    19.76655  632.   RY (13) C 24
  974.  0.00000     4.65474  645.   RY (13) C 25
  975.  0.00000    20.19101  684.   RY (13) C 28
  976.  0.00000    21.73294  814.   RY (13) C 38
  977.  0.00000    19.85236  656.   RY (11) C 26
  978.  0.00000     2.68115  657.   RY (12) C 26
  979.  0.00000     3.33446  658.   RY (13) C 26
  980.  0.00000    18.85064  670.   RY (12) C 27
  981.  0.00000     4.86607  671.   RY (13) C 27
  982.  0.00000    19.73408  697.   RY (13) C 29
  983.  0.00000     4.41673  710.   RY (13) C 30
  984.  0.00000    19.73033  722.   RY (12) C 31
  985.  0.00000     3.57251  723.   RY (13) C 31
  986.  0.00000    19.93251  735.   RY (12) C 32
  987.  0.00000     3.72275  736.   RY (13) C 32
  988.  0.00000     2.83646  748.   RY (12) C 33
  989.  0.00000    21.22566  827.   RY (13) C 39
  990.  0.00000     2.79340  852.   RY (12) C 41
  991.  0.00000     1.98537  890.   RY (11) C 44
  992.  0.00000     2.91052  902.   RY (10) C 45
  993.  0.00000     3.67414  955.   RY (11) C 49
  994.  0.00000    20.29412  749.   RY (13) C 33
  995.  0.00000    19.97564  761.   RY (12) C 34
  996.  0.00000     3.30031  762.   RY (13) C 34
  997.  0.00000    19.61936  774.   RY (12) C 35
  998.  0.00000     4.03322  775.   RY (13) C 35
  999.  0.00000     3.28761  787.   RY (12) C 36
 1000.  0.00000    20.38026  788.   RY (13) C 36
 1001.  0.00000     3.42258  800.   RY (12) C 37
 1002.  0.00000    20.26044  801.   RY (13) C 37
 1003.  0.00000    19.61052  840.   RY (13) C 40
 1004.  0.00000    21.75940  853.   RY (13) C 41
 1005.  0.00000    22.03523  866.   RY (13) C 42
 1006.  0.00000    20.86476  879.   RY (13) C 43
 1007.  0.00000     5.34839  891.   RY (12) C 44
 1008.  0.00000     2.68004  903.   RY (11) C 45
 1009.  0.00000     2.82052  930.   RY (12) C 47
 1010.  0.00000     2.76998  941.   RY (10) C 48
 1011.  0.00000    18.04735  892.   RY (13) C 44
 1012.  0.00000     3.08270  904.   RY (12) C 45
 1013.  0.00000    19.22498  905.   RY (13) C 45
 1014.  0.00000    20.50779  917.   RY (12) C 46
 1015.  0.00000     2.96606  918.   RY (13) C 46
 1016.  0.00000    20.32176  931.   RY (13) C 47
 1017.  0.00000    19.82608  942.   RY (11) C 48
 1018.  0.00000     3.11123  943.   RY (12) C 48
 1019.  0.00000     2.93773  944.   RY (13) C 48
 1020.  0.00000     4.49795  956.   RY (12) C 49
 1021.  0.00000    19.19355  957.   RY (13) C 49

 NBO analysis completed in 55.80 CPU seconds (56 wall seconds)
 Maximum scratch memory used by NBO was 9384254 words (71.60 MB)
 Maximum scratch memory used by G16NBO was 1580828 words (12.06 MB)

 Opening RunExU unformatted file "/tmp/Gau-1440819.EUF"
 Read unf file /tmp/Gau-1440819.EUF:
 Label Gaussian matrix elements                                         IVers= 2 NLab= 2 Version=AS64L-G16RevC.01
 Title az_pp02_NBO                                                     
 NAtoms=    81 NBasis=  1021 NBsUse=  1021 ICharg=     0 Multip=     1 NE=   378 Len12L=8 Len4L=8 IOpCl= 0 ICGU=111
 GAUSSIAN SCALARS                    NI= 1 NR= 1 NTot=       1 LenBuf=    2 NRI=1 N=    1000
 ALPHA ORBITAL ENERGIES              NI= 0 NR= 1 NTot=    1021 LenBuf= 2048 NRI=1 N=    1021
 ALPHA MO COEFFICIENTS               NI= 0 NR= 1 NTot= 1042441 LenBuf= 2048 NRI=1 N=    1021    1021
 Store file  10524 Len= 1042441.
 NPA CHARGES                         NI= 0 NR= 1 NTot=      81 LenBuf= 2048 NRI=1 N=      81
 Recovered energy= -3425.81154702     dipole=     -0.276949729718      6.812264468007      0.046978266014
 Unable to Open any file for archive entry.
 1\1\GINC-NODE07\SP\RwB97XD\GenECP\C44H32Cl2P2Pd1\LILIANAC\01-May-2022\
 0\\# wb97xd/genecp pop=(nbo6read,savenbos) scrf=(solvent=toluene,smd)\
 \az_pp02_NBO\\0,1\P,0,1.627933,-0.714126,0.2491\Pd,0,-0.089107,-2.2357
 72,0.013457\P,0,-1.676885,-0.585215,-0.249237\Cl,0,1.523564,-3.976555,
 -0.313677\Cl,0,-1.847925,-3.821959,0.366352\C,0,1.077088,0.740415,1.24
 6103\C,0,2.991992,-1.432061,1.229029\C,0,2.340323,-0.081257,-1.294799\
 C,0,0.247839,1.713177,0.717272\C,0,1.382071,0.761832,2.631588\C,0,4.33
 0258,-1.181811,0.938626\C,0,2.666028,-2.255543,2.310401\C,0,3.200462,1
 .018351,-1.300325\C,0,2.014915,-0.712993,-2.493843\C,0,-0.11338,1.7231
 45,-0.732141\C,0,-0.287306,2.736686,1.56064\C,0,0.850554,1.709854,3.45
 5608\C,0,5.330465,-1.733,1.732758\C,0,3.664978,-2.79554,3.104274\C,0,3
 .730302,1.479024,-2.496083\C,0,2.541986,-0.243229,-3.689845\C,0,-1.013
 817,0.81346,-1.25688\C,0,0.497678,2.699031,-1.580235\C,0,-1.127075,3.7
 68113,1.061526\C,0,-0.001752,2.716708,2.949275\C,0,5.000908,-2.532843,
 2.817603\C,0,3.397224,0.851492,-3.691557\C,0,-1.314805,0.849885,-2.642
 838\C,0,1.410578,3.668527,-1.085376\C,0,0.213455,2.692377,-2.969204\C,
 0,-1.649952,4.715306,1.898034\C,0,-0.570423,3.702304,3.794704\C,0,-0.7
 11537,1.749733,-3.471395\C,0,2.003135,4.569688,-1.926324\C,0,0.854636,
 3.628144,-3.819335\C,0,-1.375473,4.681268,3.282537\C,0,1.728796,4.5481
 2,-3.31116\C,0,-3.085976,-1.215036,-1.226087\C,0,-2.343347,0.118256,1.
 284538\C,0,-2.813908,-2.054465,-2.310239\C,0,-4.406563,-0.896425,-0.92
 2846\C,0,-2.049642,-0.507309,2.494992\C,0,-3.132054,1.270239,1.271585\
 C,0,-3.846563,-2.541457,-3.094809\C,0,-5.441433,-1.394591,-1.707755\C,
 0,-2.536895,0.020242,3.683691\C,0,-3.623449,1.788175,2.460245\C,0,-5.1
 64359,-2.209712,-2.795737\C,0,-3.321384,1.166602,3.666967\H,0,2.044674
 ,0.017005,3.050992\H,0,4.608495,-0.58032,0.081986\H,0,1.628696,-2.4950
 03,2.520401\H,0,3.436452,1.531537,-0.373701\H,0,1.352265,-1.571919,-2.
 489153\H,0,1.085811,1.699152,4.515232\H,0,6.370534,-1.541306,1.491505\
 H,0,3.399747,-3.440343,3.934827\H,0,4.387703,2.341225,-2.496527\H,0,2.
 281462,-0.735496,-4.620349\H,0,-1.362434,3.801457,0.004951\H,0,5.78343
 5,-2.966597,3.431269\H,0,3.803981,1.220606,-4.627095\H,0,-2.03177,0.15
 5405,-3.058996\H,0,1.646233,3.690495,-0.028551\H,0,-2.288098,5.495299,
 1.496279\H,0,-0.350753,3.667279,4.857342\H,0,-0.945294,1.750464,-4.531
 399\H,0,2.696403,5.302939,-1.527828\H,0,0.633861,3.603247,-4.882004\H,
 0,-1.803872,5.434037,3.935804\H,0,2.211995,5.263949,-3.967678\H,0,-1.7
 92946,-2.350263,-2.528036\H,0,-4.645275,-0.283109,-0.06276\H,0,-1.4411
 13,-1.405268,2.505007\H,0,-3.34252,1.777794,0.335711\H,0,-3.622834,-3.
 199628,-3.927098\H,0,-6.467817,-1.150029,-1.456058\H,0,-2.300356,-0.46
 7273,4.623069\H,0,-4.225489,2.689768,2.446227\H,0,-5.974121,-2.602351,
 -3.401661\H,0,-3.697191,1.580333,4.596752\\Version=AS64L-G16RevC.01\St
 ate=1-A\HF=-3425.811547\RMSD=4.259e-09\Dipole=0.2769464,6.8122646,-0.0
 469783\Quadrupole=12.2332786,-42.4207431,30.1874645,-2.0519831,3.83296
 75,0.3312711\PG=C01 [X(C44H32Cl2P2Pd1)]\\@
 The archive entry for this job was punched.


 LIVE PURE, SPEAK TRUE, RIGHT WRONG, FOLLOW THE KING...
 ELSE, WHEREFORE BORN......
           IDYLLS OF THE KING, TENNYSON
 Job cpu time:       0 days  3 hours 18 minutes 30.2 seconds.
 Elapsed time:       0 days  1 hours 41 minutes  2.9 seconds.
 File lengths (MBytes):  RWF=   1159 Int=      0 D2E=      0 Chk=     55 Scr=      1
 Normal termination of Gaussian 16 at Sun May  1 10:15:00 2022.
